<?xml version="1.0" encoding="UTF-8"?>

<!-- generated on 2025-09-15 13:06:23 by Eclipse SUMO sumo Version 1.18.0
<configuration xmlns:xsi="http://www.w3.org/2001/XMLSchema-instance" xsi:noNamespaceSchemaLocation="http://sumo.dlr.de/xsd/sumoConfiguration.xsd">

    <input>
        <net-file value="E:\JinJixia\Code\Screening-Optimization\20250910\Songshanhu\Algorithm\MASON\1\taizhong_6.25.net.xml"/>
        <route-files value="E:\JinJixia\Code\Screening-Optimization\20250910\Songshanhu\Algorithm\MASON\1\new.rou.xml"/>
        <additional-files value="E:\JinJixia\Code\Screening-Optimization\20250910\Songshanhu\Algorithm\MASON\1\e2.add.xml,E:\JinJixia\Code\Screening-Optimization\20250910\Songshanhu\Algorithm\MASON\1\ e1.add.xml"/>
    </input>

    <output>
        <output-prefix value="output."/>
        <queue-output value="E:\JinJixia\Code\Screening-Optimization\20250910\Songshanhu\Algorithm\MASON\1\queue.xml"/>
        <summary-output value="E:\JinJixia\Code\Screening-Optimization\20250910\Songshanhu\Algorithm\MASON\1\summary.xml"/>
        <tripinfo-output value="E:\JinJixia\Code\Screening-Optimization\20250910\Songshanhu\Algorithm\MASON\1\tripinfo.xml"/>
        <tripinfo-output.write-unfinished value="false"/>
    </output>

    <time>
        <begin value="0.0"/>
        <end value="900.0"/>
        <step-length value="1"/>
    </time>

    <processing>
        <lateral-resolution value="0.8"/>
        <ignore-junction-blocker value="60"/>
        <ignore-route-errors value="true"/>
        <collision.action value="none"/>
        <time-to-teleport value="300"/>
        <max-depart-delay value="900"/>
        <eager-insert value="true"/>
        <emergency-insert value="true"/>
        <time-to-impatience value="120"/>
        <pedestrian.model value="striping"/>
        <pedestrian.striping.stripe-width value="0.55"/>
        <pedestrian.striping.jamtime value="60"/>
    </processing>

    <routing>
        <persontrip.transfer.car-walk value="parkingAreas,ptStops,allJunctions"/>
        <device.rerouting.probability value="1"/>
        <device.rerouting.period value="300"/>
        <device.rerouting.pre-period value="300"/>
        <person-device.rerouting.probability value="1"/>
        <person-device.rerouting.period value="300"/>
    </routing>

    <report>
        <verbose value="true"/>
        <no-warnings value="true"/>
        <duration-log.disable value="false"/>
        <duration-log.statistics value="true"/>
        <no-step-log value="true"/>
    </report>

    <traci_server>
        <remote-port value="60576"/>
    </traci_server>

    <random_number>
        <seed value="51"/>
    </random_number>

</configuration>
-->

<tripinfos xmlns:xsi="http://www.w3.org/2001/XMLSchema-instance" xsi:noNamespaceSchemaLocation="http://sumo.dlr.de/xsd/tripinfo_file.xsd">
    <tripinfo id="178" depart="0.00" departLane="131279242#7.40.72_1" departPos="4.42" departPosLat="0.00" departSpeed="12.86" departDelay="0.00" arrival="7.00" arrivalLane="131279242#7.40.72_1" arrivalPos="124.90" arrivalPosLat="0.00" arrivalSpeed="21.92" duration="7.00" routeLength="120.48" waitingTime="0.00" waitingCount="0" stopTime="0.00" timeLoss="2.66" rerouteNo="0" devices="tripinfo_178 routing_178" vType="passenger" speedFactor="1.75" vaporized=""/>
    <tripinfo id="168" depart="0.00" departLane="131279242#7.40.72_0" departPos="12.69" departPosLat="0.00" departSpeed="11.24" departDelay="0.00" arrival="8.00" arrivalLane="131279242#7.40.72_0" arrivalPos="130.42" arrivalPosLat="0.00" arrivalSpeed="21.05" duration="8.00" routeLength="117.73" waitingTime="0.00" waitingCount="0" stopTime="0.00" timeLoss="2.48" rerouteNo="0" devices="tripinfo_168 routing_168" vType="passenger" speedFactor="1.48" vaporized=""/>
    <tripinfo id="142" depart="4.00" departLane="911706846_0" departPos="2.50" departPosLat="0.00" departSpeed="8.78" departDelay="0.00" arrival="8.00" arrivalLane="911706846.55_0" arrivalPos="7.42" arrivalPosLat="0.00" arrivalSpeed="13.18" duration="4.00" routeLength="35.91" waitingTime="0.00" waitingCount="0" stopTime="0.00" timeLoss="0.78" rerouteNo="0" devices="tripinfo_142 routing_142" vType="passenger" speedFactor="0.87" vaporized=""/>
    <tripinfo id="133" depart="0.00" departLane="131279242#5_2" departPos="8.34" departPosLat="0.00" departSpeed="5.36" departDelay="0.00" arrival="9.00" arrivalLane="911706846.55_1" arrivalPos="10.66" arrivalPosLat="0.00" arrivalSpeed="16.52" duration="9.00" routeLength="94.47" waitingTime="0.00" waitingCount="0" stopTime="0.00" timeLoss="3.14" rerouteNo="0" devices="tripinfo_133 routing_133" vType="passenger" speedFactor="1.20" vaporized=""/>
    <tripinfo id="177" depart="0.00" departLane="131279242#7.40_0" departPos="7.88" departPosLat="0.00" departSpeed="11.51" departDelay="0.00" arrival="9.00" arrivalLane="131279242#7.40.72_0" arrivalPos="119.65" arrivalPosLat="0.00" arrivalSpeed="16.64" duration="9.00" routeLength="127.21" waitingTime="0.00" waitingCount="0" stopTime="0.00" timeLoss="1.11" rerouteNo="0" devices="tripinfo_177 routing_177" vType="passenger" speedFactor="1.01" vaporized=""/>
    <tripinfo id="244" depart="0.00" departLane="131279242#4.80_0" departPos="93.47" departPosLat="0.00" departSpeed="7.76" departDelay="0.00" arrival="9.00" arrivalLane="492311556#2_0" arrivalPos="24.66" arrivalPosLat="0.00" arrivalSpeed="12.65" duration="9.00" routeLength="83.83" waitingTime="0.00" waitingCount="0" stopTime="0.00" timeLoss="1.69" rerouteNo="0" devices="tripinfo_244 routing_244" vType="passenger" speedFactor="0.79" vaporized=""/>
    <tripinfo id="82" depart="0.00" departLane="911706840#1_1" departPos="49.05" departPosLat="0.00" departSpeed="6.83" departDelay="0.00" arrival="9.00" arrivalLane="911706840#2_0" arrivalPos="61.07" arrivalPosLat="0.00" arrivalSpeed="17.85" duration="9.00" routeLength="119.46" waitingTime="0.00" waitingCount="0" stopTime="0.00" timeLoss="3.11" rerouteNo="0" devices="tripinfo_82 routing_82" vType="passenger" speedFactor="1.22" vaporized=""/>
    <tripinfo id="202" depart="0.00" departLane="131279242#7_1" departPos="30.37" departPosLat="0.00" departSpeed="10.60" departDelay="0.00" arrival="10.00" arrivalLane="131279242#7.40.72_2" arrivalPos="117.46" arrivalPosLat="0.00" arrivalSpeed="17.22" duration="10.00" routeLength="147.81" waitingTime="0.00" waitingCount="0" stopTime="0.00" timeLoss="1.05" rerouteNo="0" devices="tripinfo_202 routing_202" vType="passenger" speedFactor="1.04" vaporized=""/>
    <tripinfo id="101" depart="0.00" departLane="131279242#4.80_4" departPos="81.82" departPosLat="0.00" departSpeed="8.01" departDelay="0.00" arrival="10.00" arrivalLane="911706846.55_2" arrivalPos="23.08" arrivalPosLat="0.00" arrivalSpeed="19.41" duration="10.00" routeLength="140.30" waitingTime="0.00" waitingCount="0" stopTime="0.00" timeLoss="3.21" rerouteNo="0" devices="tripinfo_101 routing_101" vType="passenger" speedFactor="1.40" vaporized=""/>
    <tripinfo id="146" depart="2.00" departLane="71284490#1_0" departPos="11.14" departPosLat="0.00" departSpeed="6.72" departDelay="0.00" arrival="10.00" arrivalLane="71284490#1_0" arrivalPos="87.61" arrivalPosLat="0.00" arrivalSpeed="10.75" duration="8.00" routeLength="76.47" waitingTime="0.00" waitingCount="0" stopTime="0.00" timeLoss="0.55" rerouteNo="0" devices="tripinfo_146 routing_146" vType="passenger" speedFactor="0.65" vaporized=""/>
    <tripinfo id="230" depart="0.00" departLane="131279242#7_0" departPos="22.99" departPosLat="0.00" departSpeed="11.17" departDelay="0.00" arrival="11.00" arrivalLane="131279242#7.40.72_0" arrivalPos="127.32" arrivalPosLat="0.00" arrivalSpeed="17.18" duration="11.00" routeLength="165.05" waitingTime="0.00" waitingCount="0" stopTime="0.00" timeLoss="1.40" rerouteNo="0" devices="tripinfo_230 routing_230" vType="passenger" speedFactor="1.05" vaporized=""/>
    <tripinfo id="186" depart="4.00" departLane="71284490#1_1" departPos="14.48" departPosLat="0.00" departSpeed="6.75" departDelay="0.00" arrival="11.00" arrivalLane="71284490#1_1" arrivalPos="84.45" arrivalPosLat="0.00" arrivalSpeed="15.84" duration="7.00" routeLength="69.97" waitingTime="0.00" waitingCount="0" stopTime="0.00" timeLoss="2.89" rerouteNo="0" devices="tripinfo_186 routing_186" vType="passenger" speedFactor="1.23" vaporized=""/>
    <tripinfo id="37" depart="0.00" departLane="131279242#0.1020.71_1" departPos="6.45" departPosLat="0.00" departSpeed="5.99" departDelay="0.00" arrival="12.00" arrivalLane="131279242#2.55_0" arrivalPos="2.50" arrivalPosLat="0.00" arrivalSpeed="16.83" duration="12.00" routeLength="147.73" waitingTime="0.00" waitingCount="0" stopTime="0.00" timeLoss="3.72" rerouteNo="0" devices="tripinfo_37 routing_37" vType="passenger" speedFactor="1.16" vaporized=""/>
    <tripinfo id="16" depart="0.00" departLane="131279242#0_2" departPos="1022.82" departPosLat="0.00" departSpeed="0.52" departDelay="0.00" arrival="12.00" arrivalLane="131279242#0.1020.71_3" arrivalPos="21.03" arrivalPosLat="0.00" arrivalSpeed="10.36" duration="12.00" routeLength="90.30" waitingTime="0.00" waitingCount="0" stopTime="0.00" timeLoss="6.69" rerouteNo="0" devices="tripinfo_16 routing_16" vType="passenger" speedFactor="1.05" vaporized=""/>
    <tripinfo id="21" depart="0.00" departLane="911706840#2_0" departPos="23.08" departPosLat="0.00" departSpeed="9.24" departDelay="0.00" arrival="12.00" arrivalLane="71284490#1_0" arrivalPos="94.74" arrivalPosLat="0.00" arrivalSpeed="15.61" duration="12.00" routeLength="159.26" waitingTime="0.00" waitingCount="0" stopTime="0.00" timeLoss="2.33" rerouteNo="0" devices="tripinfo_21 routing_21" vType="passenger" speedFactor="1.03" vaporized=""/>
    <tripinfo id="22" depart="0.00" departLane="131279242#0.1020_2" departPos="28.93" departPosLat="0.00" departSpeed="5.34" departDelay="0.00" arrival="12.00" arrivalLane="131279242#2.5_1" arrivalPos="11.64" arrivalPosLat="0.00" arrivalSpeed="18.03" duration="12.00" routeLength="139.06" waitingTime="0.00" waitingCount="0" stopTime="0.00" timeLoss="5.23" rerouteNo="0" devices="tripinfo_22 routing_22" vType="passenger" speedFactor="1.28" vaporized=""/>
    <tripinfo id="247" depart="1.00" departLane="131279242#7_1" departPos="5.50" departPosLat="0.00" departSpeed="13.05" departDelay="0.00" arrival="12.00" arrivalLane="131279242#7.40.72_2" arrivalPos="117.41" arrivalPosLat="0.00" arrivalSpeed="18.20" duration="11.00" routeLength="172.63" waitingTime="0.00" waitingCount="0" stopTime="0.00" timeLoss="1.11" rerouteNo="0" devices="tripinfo_247 routing_247" vType="passenger" speedFactor="1.11" vaporized=""/>
    <tripinfo id="99" depart="0.00" departLane="131279242#7_2" departPos="30.37" departPosLat="0.00" departSpeed="9.30" departDelay="0.00" arrival="13.00" arrivalLane="131279242#7.40.72_3" arrivalPos="132.29" arrivalPosLat="0.00" arrivalSpeed="12.97" duration="13.00" routeLength="162.64" waitingTime="0.00" waitingCount="0" stopTime="0.00" timeLoss="0.44" rerouteNo="0" devices="tripinfo_99 routing_99" vType="passenger" speedFactor="0.78" vaporized=""/>
    <tripinfo id="150" depart="3.00" departLane="911706840#1_4" departPos="2.50" departPosLat="0.00" departSpeed="8.19" departDelay="0.00" arrival="13.00" arrivalLane="911706840#2_3" arrivalPos="28.79" arrivalPosLat="0.00" arrivalSpeed="16.99" duration="10.00" routeLength="133.73" waitingTime="0.00" waitingCount="0" stopTime="0.00" timeLoss="1.78" rerouteNo="0" devices="tripinfo_150 routing_150" vType="passenger" speedFactor="1.03" vaporized=""/>
    <tripinfo id="246" depart="1.00" departLane="131279242#7_0" departPos="6.24" departPosLat="0.00" departSpeed="10.76" departDelay="0.00" arrival="14.00" arrivalLane="131279242#7.40.72_0" arrivalPos="126.82" arrivalPosLat="0.00" arrivalSpeed="14.81" duration="13.00" routeLength="181.30" waitingTime="0.00" waitingCount="0" stopTime="0.00" timeLoss="0.60" rerouteNo="0" devices="tripinfo_246 routing_246" vType="passenger" speedFactor="0.89" vaporized=""/>
    <tripinfo id="6" depart="6.00" departLane="71284490#1_1" departPos="15.07" departPosLat="0.00" departSpeed="6.13" departDelay="0.00" arrival="14.00" arrivalLane="71284490#1_1" arrivalPos="96.11" arrivalPosLat="0.00" arrivalSpeed="12.44" duration="8.00" routeLength="81.04" waitingTime="0.00" waitingCount="0" stopTime="0.00" timeLoss="1.29" rerouteNo="0" devices="tripinfo_6 routing_6" vType="passenger" speedFactor="0.75" vaporized=""/>
    <tripinfo id="245" depart="9.00" departLane="-374712321#2_0" departPos="20.25" departPosLat="0.00" departSpeed="8.62" departDelay="0.00" arrival="14.00" arrivalLane="-374712321#2_0" arrivalPos="80.06" arrivalPosLat="0.00" arrivalSpeed="14.95" duration="5.00" routeLength="59.81" waitingTime="0.00" waitingCount="0" stopTime="0.00" timeLoss="1.64" rerouteNo="0" devices="tripinfo_245 routing_245" vType="passenger" speedFactor="1.12" vaporized=""/>
    <tripinfo id="223" depart="10.00" departLane="131279242#2_0" departPos="3.68" departPosLat="0.00" departSpeed="6.19" departDelay="1.00" arrival="14.00" arrivalLane="131279242#2.5_0" arrivalPos="11.64" arrivalPosLat="0.00" arrivalSpeed="11.41" duration="4.00" routeLength="27.06" waitingTime="0.00" waitingCount="0" stopTime="0.00" timeLoss="1.72" rerouteNo="0" devices="tripinfo_223 routing_223" vType="passenger" speedFactor="1.00" vaporized=""/>
    <tripinfo id="164" depart="4.00" departLane="131279242#7_2" departPos="2.50" departPosLat="0.00" departSpeed="10.90" departDelay="0.00" arrival="15.00" arrivalLane="131279242#7.40.72_3" arrivalPos="120.57" arrivalPosLat="0.00" arrivalSpeed="19.35" duration="11.00" routeLength="178.79" waitingTime="0.00" waitingCount="0" stopTime="0.00" timeLoss="1.99" rerouteNo="0" devices="tripinfo_164 routing_164" vType="passenger" speedFactor="1.22" vaporized=""/>
    <tripinfo id="165" depart="12.00" departLane="490367388#2_0" departPos="31.09" departPosLat="0.00" departSpeed="14.62" departDelay="0.00" arrival="15.00" arrivalLane="490367388#2_0" arrivalPos="76.28" arrivalPosLat="0.00" arrivalSpeed="16.36" duration="3.00" routeLength="45.19" waitingTime="0.00" waitingCount="0" stopTime="0.00" timeLoss="0.17" rerouteNo="0" devices="tripinfo_165 routing_165" vType="passenger" speedFactor="1.01" vaporized=""/>
    <tripinfo id="156" depart="0.00" departLane="131279242#4.80_3" departPos="49.22" departPosLat="0.00" departSpeed="4.80" departDelay="0.00" arrival="16.00" arrivalLane="911706846.55_1" arrivalPos="23.30" arrivalPosLat="0.00" arrivalSpeed="15.42" duration="16.00" routeLength="178.43" waitingTime="0.00" waitingCount="0" stopTime="0.00" timeLoss="3.59" rerouteNo="0" devices="tripinfo_156 routing_156" vType="passenger" speedFactor="0.96" vaporized=""/>
    <tripinfo id="254" depart="3.00" departLane="131279242#2.90_2" departPos="16.64" departPosLat="0.00" departSpeed="7.21" departDelay="0.00" arrival="16.00" arrivalLane="71284490#1_0" arrivalPos="92.71" arrivalPosLat="0.00" arrivalSpeed="16.47" duration="13.00" routeLength="158.23" waitingTime="0.00" waitingCount="0" stopTime="0.00" timeLoss="2.05" rerouteNo="0" devices="tripinfo_254 routing_254" vType="passenger" speedFactor="1.02" vaporized=""/>
    <tripinfo id="203" depart="3.00" departLane="131279242#7_0" departPos="2.71" departPosLat="0.00" departSpeed="11.00" departDelay="0.00" arrival="16.00" arrivalLane="131279242#7.40.72_0" arrivalPos="121.05" arrivalPosLat="0.00" arrivalSpeed="15.28" duration="13.00" routeLength="179.06" waitingTime="0.00" waitingCount="0" stopTime="0.00" timeLoss="0.85" rerouteNo="0" devices="tripinfo_203 routing_203" vType="passenger" speedFactor="0.92" vaporized=""/>
    <tripinfo id="128" depart="3.00" departLane="131279242#7_1" departPos="2.50" departPosLat="0.00" departSpeed="10.73" departDelay="0.00" arrival="16.00" arrivalLane="131279242#7.40.72_2" arrivalPos="122.21" arrivalPosLat="0.00" arrivalSpeed="16.02" duration="13.00" routeLength="180.43" waitingTime="0.00" waitingCount="0" stopTime="0.00" timeLoss="0.77" rerouteNo="0" devices="tripinfo_128 routing_128" vType="passenger" speedFactor="0.96" vaporized=""/>
    <tripinfo id="181" depart="9.00" departLane="131279242#2_2" departPos="2.50" departPosLat="0.00" departSpeed="3.16" departDelay="0.00" arrival="16.00" arrivalLane="131279242#2.55_2" arrivalPos="2.68" arrivalPosLat="0.00" arrivalSpeed="12.53" duration="7.00" routeLength="48.32" waitingTime="0.00" waitingCount="0" stopTime="0.00" timeLoss="4.32" rerouteNo="0" devices="tripinfo_181 routing_181" vType="passenger" speedFactor="1.34" vaporized=""/>
    <tripinfo id="159" depart="0.00" departLane="131279242#0.1020.71_0" departPos="7.81" departPosLat="0.00" departSpeed="5.39" departDelay="0.00" arrival="17.00" arrivalLane="131279242#2.55_0" arrivalPos="4.24" arrivalPosLat="0.00" arrivalSpeed="16.09" duration="17.00" routeLength="148.11" waitingTime="0.00" waitingCount="0" stopTime="0.00" timeLoss="10.47" rerouteNo="0" devices="tripinfo_159 routing_159" vType="passenger" speedFactor="1.38" vaporized=""/>
    <tripinfo id="116" depart="0.00" departLane="131279242#0_2" departPos="992.83" departPosLat="0.00" departSpeed="0.02" departDelay="0.00" arrival="17.00" arrivalLane="131279242#0.1020.71_3" arrivalPos="23.14" arrivalPosLat="0.00" arrivalSpeed="14.65" duration="17.00" routeLength="122.40" waitingTime="0.00" waitingCount="0" stopTime="0.00" timeLoss="9.82" rerouteNo="0" devices="tripinfo_116 routing_116" vType="passenger" speedFactor="1.12" vaporized=""/>
    <tripinfo id="106" depart="0.00" departLane="131279242#0.1020_3" departPos="14.90" departPosLat="0.00" departSpeed="4.90" departDelay="0.00" arrival="17.00" arrivalLane="131279242#2.5_2" arrivalPos="11.64" arrivalPosLat="0.00" arrivalSpeed="10.27" duration="17.00" routeLength="153.09" waitingTime="0.00" waitingCount="0" stopTime="0.00" timeLoss="1.24" rerouteNo="0" devices="tripinfo_106 routing_106" vType="passenger" speedFactor="0.62" vaporized=""/>
    <tripinfo id="257" depart="11.00" departLane="-374712321#2_0" departPos="21.76" departPosLat="0.00" departSpeed="9.17" departDelay="0.00" arrival="17.00" arrivalLane="-374712321#2_0" arrivalPos="83.03" arrivalPosLat="0.00" arrivalSpeed="13.88" duration="6.00" routeLength="61.27" waitingTime="0.00" waitingCount="0" stopTime="0.00" timeLoss="0.77" rerouteNo="0" devices="tripinfo_257 routing_257" vType="passenger" speedFactor="0.85" vaporized=""/>
    <tripinfo id="176" depart="0.00" departLane="131279242#0.1020_1" departPos="9.45" departPosLat="0.00" departSpeed="7.02" departDelay="0.00" arrival="18.00" arrivalLane="131279242#2.5_0" arrivalPos="11.64" arrivalPosLat="0.00" arrivalSpeed="12.70" duration="18.00" routeLength="158.54" waitingTime="0.00" waitingCount="0" stopTime="0.00" timeLoss="5.49" rerouteNo="0" devices="tripinfo_176 routing_176" vType="passenger" speedFactor="0.78" vaporized=""/>
    <tripinfo id="213" depart="0.00" departLane="131279242#4.80_3" departPos="71.24" departPosLat="0.00" departSpeed="7.98" departDelay="0.00" arrival="18.00" arrivalLane="131279242#7.40.72_3" arrivalPos="112.19" arrivalPosLat="0.00" arrivalSpeed="22.20" duration="18.00" routeLength="270.05" waitingTime="0.00" waitingCount="0" stopTime="0.00" timeLoss="7.47" rerouteNo="0" devices="tripinfo_213 routing_213" vType="passenger" speedFactor="1.56" vaporized=""/>
    <tripinfo id="40" depart="0.00" departLane="131279242#0.1020_3" departPos="2.50" departPosLat="0.00" departSpeed="4.77" departDelay="0.00" arrival="18.00" arrivalLane="131279242#2.5_2" arrivalPos="11.64" arrivalPosLat="0.00" arrivalSpeed="11.49" duration="18.00" routeLength="165.49" waitingTime="0.00" waitingCount="0" stopTime="0.00" timeLoss="7.39" rerouteNo="0" devices="tripinfo_40 routing_40" vType="passenger" speedFactor="0.97" vaporized=""/>
    <tripinfo id="30" depart="0.00" departLane="131279242#0_1" departPos="1022.06" departPosLat="0.00" departSpeed="0.76" departDelay="0.00" arrival="18.00" arrivalLane="131279242#2.5_1" arrivalPos="11.64" arrivalPosLat="0.00" arrivalSpeed="19.67" duration="18.00" routeLength="204.31" waitingTime="0.00" waitingCount="0" stopTime="0.00" timeLoss="10.91" rerouteNo="0" devices="tripinfo_30 routing_30" vType="passenger" speedFactor="1.76" vaporized=""/>
    <tripinfo id="31" depart="1.00" departLane="131279242#5_2" departPos="2.50" departPosLat="0.00" departSpeed="6.10" departDelay="1.00" arrival="18.00" arrivalLane="131279242#7.40.72_3" arrivalPos="135.63" arrivalPosLat="0.00" arrivalSpeed="22.67" duration="17.00" routeLength="250.03" waitingTime="0.00" waitingCount="0" stopTime="0.00" timeLoss="6.05" rerouteNo="0" devices="tripinfo_31 routing_31" vType="passenger" speedFactor="1.44" vaporized=""/>
    <tripinfo id="277" depart="6.00" departLane="131279242#2.90_2" departPos="16.97" departPosLat="0.00" departSpeed="7.84" departDelay="0.00" arrival="18.00" arrivalLane="71284490#1_0" arrivalPos="94.33" arrivalPosLat="0.00" arrivalSpeed="19.93" duration="12.00" routeLength="159.52" waitingTime="0.00" waitingCount="0" stopTime="0.00" timeLoss="4.45" rerouteNo="0" devices="tripinfo_277 routing_277" vType="passenger" speedFactor="1.54" vaporized=""/>
    <tripinfo id="127" depart="0.00" departLane="128009952#0.1503_0" departPos="20.96" departPosLat="0.00" departSpeed="4.94" departDelay="0.00" arrival="19.00" arrivalLane="131279242#7.40.72_0" arrivalPos="130.92" arrivalPosLat="0.00" arrivalSpeed="16.37" duration="19.00" routeLength="217.01" waitingTime="0.00" waitingCount="0" stopTime="0.00" timeLoss="4.78" rerouteNo="0" devices="tripinfo_127 routing_127" vType="passenger" speedFactor="0.99" vaporized=""/>
    <tripinfo id="218" depart="0.00" departLane="131279242#5_0" departPos="2.50" departPosLat="0.00" departSpeed="9.72" departDelay="0.00" arrival="19.00" arrivalLane="131279242#7.40.72_1" arrivalPos="118.92" arrivalPosLat="0.00" arrivalSpeed="20.68" duration="19.00" routeLength="233.32" waitingTime="0.00" waitingCount="0" stopTime="0.00" timeLoss="8.45" rerouteNo="0" devices="tripinfo_218 routing_218" vType="passenger" speedFactor="1.38" vaporized=""/>
    <tripinfo id="267" depart="12.00" departLane="-374712321#2_0" departPos="15.27" departPosLat="0.00" departSpeed="8.65" departDelay="1.00" arrival="19.00" arrivalLane="-374712321#2_0" arrivalPos="82.40" arrivalPosLat="0.00" arrivalSpeed="11.37" duration="7.00" routeLength="67.13" waitingTime="0.00" waitingCount="0" stopTime="0.00" timeLoss="0.41" rerouteNo="0" devices="tripinfo_267 routing_267" vType="passenger" speedFactor="0.68" vaporized=""/>
    <tripinfo id="212" depart="0.00" departLane="131279242#4.80_4" departPos="64.95" departPosLat="0.00" departSpeed="6.00" departDelay="0.00" arrival="20.00" arrivalLane="911706846.55_1" arrivalPos="26.82" arrivalPosLat="0.00" arrivalSpeed="9.67" duration="20.00" routeLength="160.91" waitingTime="0.00" waitingCount="0" stopTime="0.00" timeLoss="1.93" rerouteNo="0" devices="tripinfo_212 routing_212" vType="passenger" speedFactor="0.58" vaporized=""/>
    <tripinfo id="162" depart="1.00" departLane="911706840#0_0" departPos="3.02" departPosLat="0.00" departSpeed="8.14" departDelay="0.00" arrival="20.00" arrivalLane="71284490#1_0" arrivalPos="85.85" arrivalPosLat="0.00" arrivalSpeed="18.80" duration="19.00" routeLength="303.54" waitingTime="0.00" waitingCount="0" stopTime="0.00" timeLoss="2.76" rerouteNo="0" devices="tripinfo_162 routing_162" vType="passenger" speedFactor="1.14" vaporized=""/>
    <tripinfo id="303" depart="12.00" departLane="492311567#0_0" departPos="3011.54" departPosLat="0.00" departSpeed="9.78" departDelay="0.00" arrival="20.00" arrivalLane="492311567#0.3049_0" arrivalPos="42.60" arrivalPosLat="0.00" arrivalSpeed="11.32" duration="8.00" routeLength="80.67" waitingTime="0.00" waitingCount="0" stopTime="0.00" timeLoss="0.12" rerouteNo="0" devices="tripinfo_303 routing_303" vType="passenger" speedFactor="0.68" vaporized=""/>
    <tripinfo id="282" depart="13.00" departLane="-374712321#2_0" departPos="9.94" departPosLat="0.00" departSpeed="8.83" departDelay="0.00" arrival="20.00" arrivalLane="-374712321#2_0" arrivalPos="78.68" arrivalPosLat="0.00" arrivalSpeed="11.17" duration="7.00" routeLength="68.74" waitingTime="0.00" waitingCount="0" stopTime="0.00" timeLoss="0.74" rerouteNo="0" devices="tripinfo_282 routing_282" vType="passenger" speedFactor="0.69" vaporized=""/>
    <tripinfo id="42" depart="0.00" departLane="131279242#0_1" departPos="1009.16" departPosLat="0.00" departSpeed="0.04" departDelay="0.00" arrival="21.00" arrivalLane="131279242#2.5_1" arrivalPos="2.53" arrivalPosLat="0.00" arrivalSpeed="15.95" duration="21.00" routeLength="208.10" waitingTime="0.00" waitingCount="0" stopTime="0.00" timeLoss="7.06" rerouteNo="0" devices="tripinfo_42 routing_42" vType="passenger" speedFactor="0.96" vaporized=""/>
    <tripinfo id="34" depart="0.00" departLane="131279242#0_2" departPos="965.54" departPosLat="0.00" departSpeed="0.02" departDelay="0.00" arrival="22.00" arrivalLane="131279242#0.1020.71_3" arrivalPos="10.48" arrivalPosLat="0.00" arrivalSpeed="7.66" duration="22.00" routeLength="137.03" waitingTime="0.00" waitingCount="0" stopTime="0.00" timeLoss="14.30" rerouteNo="0" devices="tripinfo_34 routing_34" vType="passenger" speedFactor="1.07" vaporized=""/>
    <tripinfo id="32" depart="0.00" departLane="131279242#4.80_1" departPos="94.13" departPosLat="0.00" departSpeed="9.11" departDelay="0.00" arrival="22.00" arrivalLane="131279242#7.40.72_0" arrivalPos="129.77" arrivalPosLat="0.00" arrivalSpeed="18.62" duration="22.00" routeLength="264.74" waitingTime="0.00" waitingCount="0" stopTime="0.00" timeLoss="7.13" rerouteNo="0" devices="tripinfo_32 routing_32" vType="passenger" speedFactor="1.13" vaporized=""/>
    <tripinfo id="58" depart="0.00" departLane="131279242#0_2" departPos="979.21" departPosLat="0.00" departSpeed="0.02" departDelay="0.00" arrival="23.00" arrivalLane="131279242#0.1020.71_3" arrivalPos="24.41" arrivalPosLat="0.00" arrivalSpeed="7.73" duration="23.00" routeLength="137.29" waitingTime="0.00" waitingCount="0" stopTime="0.00" timeLoss="4.38" rerouteNo="0" devices="tripinfo_58 routing_58" vType="passenger" speedFactor="0.46" vaporized=""/>
    <tripinfo id="50" depart="0.00" departLane="131279242#4.80_2" departPos="94.90" departPosLat="0.00" departSpeed="6.82" departDelay="0.00" arrival="23.00" arrivalLane="131279242#7.40.72_3" arrivalPos="128.44" arrivalPosLat="0.00" arrivalSpeed="18.07" duration="23.00" routeLength="262.64" waitingTime="0.00" waitingCount="0" stopTime="0.00" timeLoss="8.98" rerouteNo="0" devices="tripinfo_50 routing_50" vType="passenger" speedFactor="1.13" vaporized=""/>
    <tripinfo id="198" depart="9.00" departLane="131279242#7_0" departPos="2.50" departPosLat="0.00" departSpeed="11.11" departDelay="4.00" arrival="23.00" arrivalLane="131279242#7.40.72_0" arrivalPos="120.74" arrivalPosLat="0.00" arrivalSpeed="17.65" duration="14.00" routeLength="178.96" waitingTime="0.00" waitingCount="0" stopTime="0.00" timeLoss="3.58" rerouteNo="0" devices="tripinfo_198 routing_198" vType="passenger" speedFactor="1.08" vaporized=""/>
    <tripinfo id="219" depart="17.00" departLane="131279242#2_0" departPos="2.50" departPosLat="0.00" departSpeed="5.66" departDelay="6.00" arrival="23.00" arrivalLane="131279242#2.55_0" arrivalPos="6.80" arrivalPosLat="0.00" arrivalSpeed="11.45" duration="6.00" routeLength="52.44" waitingTime="0.00" waitingCount="0" stopTime="0.00" timeLoss="1.14" rerouteNo="0" devices="tripinfo_219 routing_219" vType="passenger" speedFactor="0.71" vaporized=""/>
    <tripinfo id="220" depart="0.00" departLane="131279242#4.80_2" departPos="78.93" departPosLat="0.00" departSpeed="5.77" departDelay="0.00" arrival="25.00" arrivalLane="131279242#7.40.72_3" arrivalPos="127.37" arrivalPosLat="0.00" arrivalSpeed="18.19" duration="25.00" routeLength="277.54" waitingTime="0.00" waitingCount="0" stopTime="0.00" timeLoss="10.25" rerouteNo="0" devices="tripinfo_220 routing_220" vType="passenger" speedFactor="1.16" vaporized=""/>
    <tripinfo id="93" depart="0.00" departLane="131279242#0_2" departPos="1046.26" departPosLat="0.00" departSpeed="3.53" departDelay="0.00" arrival="25.00" arrivalLane="131279242#2.5_2" arrivalPos="11.64" arrivalPosLat="0.00" arrivalSpeed="8.04" duration="25.00" routeLength="180.11" waitingTime="0.00" waitingCount="0" stopTime="0.00" timeLoss="1.61" rerouteNo="0" devices="tripinfo_93 routing_93" vType="passenger" speedFactor="0.48" vaporized=""/>
    <tripinfo id="137" depart="0.00" departLane="392530462#1.386_3" departPos="11.95" departPosLat="0.00" departSpeed="0.06" departDelay="0.00" arrival="26.00" arrivalLane="492311556#2_3" arrivalPos="22.20" arrivalPosLat="0.00" arrivalSpeed="13.45" duration="26.00" routeLength="99.07" waitingTime="4.00" waitingCount="3" stopTime="0.00" timeLoss="18.45" rerouteNo="0" devices="tripinfo_137 routing_137" vType="passenger" speedFactor="0.93" vaporized=""/>
    <tripinfo id="226" depart="0.00" departLane="131279242#4.80_2" departPos="44.80" departPosLat="0.00" departSpeed="9.15" departDelay="0.00" arrival="26.00" arrivalLane="131279242#7.40.72_2" arrivalPos="128.68" arrivalPosLat="0.00" arrivalSpeed="19.17" duration="26.00" routeLength="312.98" waitingTime="0.00" waitingCount="0" stopTime="0.00" timeLoss="9.79" rerouteNo="0" devices="tripinfo_226 routing_226" vType="passenger" speedFactor="1.20" vaporized=""/>
    <tripinfo id="179" depart="0.00" departLane="131279242#4.80_3" departPos="10.42" departPosLat="0.00" departSpeed="12.43" departDelay="0.00" arrival="26.00" arrivalLane="131279242#7.40.72_3" arrivalPos="129.19" arrivalPosLat="0.00" arrivalSpeed="18.57" duration="26.00" routeLength="347.87" waitingTime="0.00" waitingCount="0" stopTime="0.00" timeLoss="11.47" rerouteNo="0" devices="tripinfo_179 routing_179" vType="passenger" speedFactor="1.44" vaporized=""/>