<?xml version="1.0" encoding="UTF-8"?>

<!-- generated on 2025-09-11 18:16:44 by Eclipse SUMO sumo Version 1.18.0
<configuration xmlns:xsi="http://www.w3.org/2001/XMLSchema-instance" xsi:noNamespaceSchemaLocation="http://sumo.dlr.de/xsd/sumoConfiguration.xsd">

    <input>
        <net-file value="E:\JinJixia\Code\Screening-Optimization\20250910\CitySim\Algorithm\MASON\1\IntersectionA.net.xml"/>
        <route-files value="E:\JinJixia\Code\Screening-Optimization\20250910\CitySim\Algorithm\MASON\1\new.rou.xml"/>
        <additional-files value="E:\JinJixia\Code\Screening-Optimization\20250910\CitySim\Algorithm\MASON\1\loop.xml,E:\JinJixia\Code\Screening-Optimization\20250910\CitySim\Algorithm\MASON\1\ e2_det.xml,E:\JinJixia\Code\Screening-Optimization\20250910\CitySim\Algorithm\MASON\1\ e3_det.xml"/>
    </input>

    <output>
        <output-prefix value="output."/>
        <queue-output value="E:\JinJixia\Code\Screening-Optimization\20250910\CitySim\Algorithm\MASON\1\queue.xml"/>
        <summary-output value="E:\JinJixia\Code\Screening-Optimization\20250910\CitySim\Algorithm\MASON\1/summary.xml"/>
        <tripinfo-output value="E:\JinJixia\Code\Screening-Optimization\20250910\CitySim\Algorithm\MASON\1\tripinfo.xml"/>
        <tripinfo-output.write-unfinished value="false"/>
    </output>

    <time>
        <begin value="0.0"/>
        <end value="3600.0"/>
        <step-length value="1"/>
    </time>

    <processing>
        <lateral-resolution value="0.8"/>
        <ignore-junction-blocker value="60"/>
        <ignore-route-errors value="true"/>
        <collision.action value="teleport"/>
        <time-to-teleport value="300"/>
        <max-depart-delay value="900"/>
        <eager-insert value="true"/>
        <emergency-insert value="true"/>
        <time-to-impatience value="120"/>
        <pedestrian.model value="striping"/>
        <pedestrian.striping.stripe-width value="0.55"/>
        <pedestrian.striping.jamtime value="60"/>
    </processing>

    <routing>
        <persontrip.transfer.car-walk value="parkingAreas,ptStops,allJunctions"/>
        <device.rerouting.probability value="1"/>
        <device.rerouting.period value="300"/>
        <device.rerouting.pre-period value="300"/>
        <person-device.rerouting.probability value="1"/>
        <person-device.rerouting.period value="300"/>
    </routing>

    <report>
        <verbose value="true"/>
        <no-warnings value="true"/>
        <duration-log.disable value="false"/>
        <duration-log.statistics value="true"/>
        <no-step-log value="true"/>
    </report>

    <traci_server>
        <remote-port value="63699"/>
    </traci_server>

    <random_number>
        <seed value="51"/>
    </random_number>

</configuration>
-->

<tripinfos xmlns:xsi="http://www.w3.org/2001/XMLSchema-instance" xsi:noNamespaceSchemaLocation="http://sumo.dlr.de/xsd/tripinfo_file.xsd">
    <tripinfo id="7" depart="0.00" departLane="-198_2" departPos="32.48" departPosLat="0.00" departSpeed="14.69" departDelay="0.00" arrival="1.00" arrivalLane="-198_2" arrivalPos="45.67" arrivalPosLat="0.00" arrivalSpeed="16.04" duration="1.00" routeLength="13.19" waitingTime="0.00" waitingCount="0" stopTime="0.00" timeLoss="0.10" rerouteNo="0" devices="tripinfo_7 routing_7" vType="car" speedFactor="1.00" vaporized=""/>
    <tripinfo id="15" depart="1.00" departLane="-128#0_0" departPos="0.00" departPosLat="0.00" departSpeed="8.76" departDelay="0.00" arrival="2.00" arrivalLane="-128#0_0" arrivalPos="5.13" arrivalPosLat="0.00" arrivalSpeed="11.12" duration="1.00" routeLength="5.13" waitingTime="0.00" waitingCount="0" stopTime="0.00" timeLoss="0.30" rerouteNo="0" devices="tripinfo_15 routing_15" vType="car" speedFactor="0.89" vaporized=""/>
    <tripinfo id="18" depart="0.00" departLane="-198_0" departPos="6.91" departPosLat="0.00" departSpeed="10.64" departDelay="0.00" arrival="3.00" arrivalLane="-198_0" arrivalPos="43.64" arrivalPosLat="0.00" arrivalSpeed="15.46" duration="3.00" routeLength="36.73" waitingTime="0.00" waitingCount="0" stopTime="0.00" timeLoss="0.43" rerouteNo="0" devices="tripinfo_18 routing_18" vType="car" speedFactor="0.93" vaporized=""/>
    <tripinfo id="36" depart="0.00" departLane="-198_2" departPos="0.00" departPosLat="0.00" departSpeed="9.46" departDelay="0.00" arrival="4.00" arrivalLane="-198_2" arrivalPos="44.54" arrivalPosLat="0.00" arrivalSpeed="15.34" duration="4.00" routeLength="44.54" waitingTime="0.00" waitingCount="0" stopTime="0.00" timeLoss="0.53" rerouteNo="0" devices="tripinfo_36 routing_36" vType="car" speedFactor="0.89" vaporized=""/>
    <tripinfo id="19" depart="0.00" departLane="-94#1_5" departPos="110.77" departPosLat="0.00" departSpeed="0.00" departDelay="0.00" arrival="4.00" arrivalLane="-128#0_0" arrivalPos="5.13" arrivalPosLat="0.00" arrivalSpeed="2.65" duration="4.00" routeLength="27.66" waitingTime="0.00" waitingCount="0" stopTime="0.00" timeLoss="3.16" rerouteNo="0" devices="tripinfo_19 routing_19" vType="car" speedFactor="0.87" vaporized=""/>
    <tripinfo id="24" depart="1.00" departLane="-89_0" departPos="1.27" departPosLat="0.00" departSpeed="7.95" departDelay="0.00" arrival="5.00" arrivalLane="-89_0" arrivalPos="40.95" arrivalPosLat="0.00" arrivalSpeed="15.95" duration="4.00" routeLength="39.68" waitingTime="0.00" waitingCount="0" stopTime="0.00" timeLoss="0.95" rerouteNo="0" devices="tripinfo_24 routing_24" vType="car" speedFactor="0.99" vaporized=""/>
    <tripinfo id="48" depart="0.00" departLane="-94#1_5" departPos="95.46" departPosLat="0.00" departSpeed="0.00" departDelay="0.00" arrival="6.00" arrivalLane="-128#0_1" arrivalPos="5.13" arrivalPosLat="0.00" arrivalSpeed="13.83" duration="6.00" routeLength="42.97" waitingTime="0.00" waitingCount="0" stopTime="0.00" timeLoss="3.97" rerouteNo="0" devices="tripinfo_48 routing_48" vType="car" speedFactor="0.89" vaporized=""/>
    <tripinfo id="41" depart="0.00" departLane="-155_0" departPos="120.41" departPosLat="0.00" departSpeed="4.80" departDelay="0.00" arrival="6.00" arrivalLane="-128#0_0" arrivalPos="5.13" arrivalPosLat="1.00" arrivalSpeed="6.31" duration="6.00" routeLength="32.10" waitingTime="0.00" waitingCount="0" stopTime="0.00" timeLoss="2.49" rerouteNo="0" devices="tripinfo_41 routing_41" vType="car" speedFactor="0.84" vaporized=""/>
    <tripinfo id="17" depart="0.00" departLane="-94#1_1" departPos="116.02" departPosLat="0.00" departSpeed="0.00" departDelay="0.00" arrival="6.00" arrivalLane="-198_0" arrivalPos="44.14" arrivalPosLat="0.00" arrivalSpeed="17.94" duration="6.00" routeLength="61.42" waitingTime="0.00" waitingCount="0" stopTime="0.00" timeLoss="2.67" rerouteNo="0" devices="tripinfo_17 routing_17" vType="car" speedFactor="1.00" vaporized=""/>
    <tripinfo id="30" depart="0.00" departLane="-94#1_4" departPos="99.10" departPosLat="0.00" departSpeed="0.00" departDelay="0.00" arrival="6.00" arrivalLane="-128#0_2" arrivalPos="5.13" arrivalPosLat="0.00" arrivalSpeed="2.65" duration="6.00" routeLength="39.33" waitingTime="0.00" waitingCount="0" stopTime="0.00" timeLoss="4.04" rerouteNo="0" devices="tripinfo_30 routing_30" vType="car" speedFactor="0.76" vaporized=""/>
    <tripinfo id="21" depart="0.00" departLane="-94#1_2" departPos="101.08" departPosLat="0.00" departSpeed="0.00" departDelay="0.00" arrival="7.00" arrivalLane="-198_1" arrivalPos="44.34" arrivalPosLat="0.00" arrivalSpeed="19.49" duration="7.00" routeLength="76.56" waitingTime="0.00" waitingCount="0" stopTime="0.00" timeLoss="3.37" rerouteNo="0" devices="tripinfo_21 routing_21" vType="car" speedFactor="1.11" vaporized=""/>
    <tripinfo id="52" depart="0.00" departLane="-155_4" departPos="115.46" departPosLat="0.00" departSpeed="0.00" departDelay="0.00" arrival="8.00" arrivalLane="-77_1" arrivalPos="11.73" arrivalPosLat="0.00" arrivalSpeed="14.11" duration="8.00" routeLength="73.70" waitingTime="0.00" waitingCount="0" stopTime="0.00" timeLoss="2.45" rerouteNo="0" devices="tripinfo_52 routing_52" vType="car" speedFactor="0.86" vaporized=""/>
    <tripinfo id="84" depart="0.00" departLane="-94#1_4" departPos="85.30" departPosLat="0.00" departSpeed="0.00" departDelay="0.00" arrival="8.00" arrivalLane="-128#0_1" arrivalPos="5.13" arrivalPosLat="0.00" arrivalSpeed="15.58" duration="8.00" routeLength="53.13" waitingTime="0.00" waitingCount="0" stopTime="0.00" timeLoss="6.05" rerouteNo="0" devices="tripinfo_84 routing_84" vType="car" speedFactor="1.00" vaporized=""/>
    <tripinfo id="10" depart="0.00" departLane="-155_0" departPos="107.70" departPosLat="0.00" departSpeed="2.42" departDelay="0.00" arrival="8.00" arrivalLane="-128#0_0" arrivalPos="5.13" arrivalPosLat="1.00" arrivalSpeed="10.12" duration="8.00" routeLength="44.81" waitingTime="0.00" waitingCount="0" stopTime="0.00" timeLoss="2.97" rerouteNo="0" devices="tripinfo_10 routing_10" vType="car" speedFactor="0.78" vaporized=""/>
    <tripinfo id="6" depart="0.00" departLane="-155_5" departPos="120.71" departPosLat="0.00" departSpeed="1.23" departDelay="0.00" arrival="8.00" arrivalLane="-77_2" arrivalPos="12.04" arrivalPosLat="0.00" arrivalSpeed="11.76" duration="8.00" routeLength="62.73" waitingTime="0.00" waitingCount="0" stopTime="0.00" timeLoss="1.55" rerouteNo="0" devices="tripinfo_6 routing_6" vType="car" speedFactor="0.72" vaporized=""/>
    <tripinfo id="59" depart="0.00" departLane="-155_5" departPos="113.41" departPosLat="0.00" departSpeed="0.00" departDelay="0.00" arrival="9.00" arrivalLane="-77_2" arrivalPos="11.80" arrivalPosLat="0.00" arrivalSpeed="12.46" duration="9.00" routeLength="69.79" waitingTime="0.00" waitingCount="0" stopTime="0.00" timeLoss="3.02" rerouteNo="0" devices="tripinfo_59 routing_59" vType="car" speedFactor="0.80" vaporized=""/>
    <tripinfo id="28" depart="0.00" departLane="-155_2" departPos="119.23" departPosLat="0.00" departSpeed="0.90" departDelay="0.00" arrival="9.00" arrivalLane="-89_1" arrivalPos="40.95" arrivalPosLat="0.00" arrivalSpeed="18.50" duration="9.00" routeLength="101.73" waitingTime="0.00" waitingCount="0" stopTime="0.00" timeLoss="3.12" rerouteNo="0" devices="tripinfo_28 routing_28" vType="car" speedFactor="1.07" vaporized=""/>
    <tripinfo id="23" depart="0.00" departLane="-155_0" departPos="95.91" departPosLat="0.00" departSpeed="3.01" departDelay="0.00" arrival="9.00" arrivalLane="-128#0_0" arrivalPos="5.13" arrivalPosLat="0.00" arrivalSpeed="8.94" duration="9.00" routeLength="56.60" waitingTime="0.00" waitingCount="0" stopTime="0.00" timeLoss="3.80" rerouteNo="0" devices="tripinfo_23 routing_23" vType="car" speedFactor="0.84" vaporized=""/>
    <tripinfo id="43" depart="0.00" departLane="-103_0" departPos="57.75" departPosLat="0.00" departSpeed="0.00" departDelay="0.00" arrival="10.00" arrivalLane="-198_0" arrivalPos="44.04" arrivalPosLat="0.00" arrivalSpeed="13.09" duration="10.00" routeLength="76.23" waitingTime="0.00" waitingCount="0" stopTime="0.00" timeLoss="2.77" rerouteNo="0" devices="tripinfo_43 routing_43" vType="car" speedFactor="0.75" vaporized=""/>
    <tripinfo id="60" depart="0.00" departLane="-155_3" departPos="119.40" departPosLat="0.00" departSpeed="0.00" departDelay="0.00" arrival="10.00" arrivalLane="-89_2" arrivalPos="40.95" arrivalPosLat="0.00" arrivalSpeed="16.00" duration="10.00" routeLength="101.56" waitingTime="0.00" waitingCount="0" stopTime="0.00" timeLoss="2.83" rerouteNo="0" devices="tripinfo_60 routing_60" vType="car" speedFactor="0.90" vaporized=""/>
    <tripinfo id="12" depart="0.00" departLane="-155_1" departPos="117.36" departPosLat="0.00" departSpeed="0.00" departDelay="0.00" arrival="10.00" arrivalLane="-89_0" arrivalPos="40.95" arrivalPosLat="0.00" arrivalSpeed="16.67" duration="10.00" routeLength="103.60" waitingTime="0.00" waitingCount="0" stopTime="0.00" timeLoss="2.97" rerouteNo="0" devices="tripinfo_12 routing_12" vType="car" speedFactor="0.94" vaporized=""/>
    <tripinfo id="4" depart="0.00" departLane="-155_4" departPos="107.06" departPosLat="0.00" departSpeed="0.00" departDelay="0.00" arrival="10.00" arrivalLane="-77_1" arrivalPos="11.45" arrivalPosLat="-1.00" arrivalSpeed="13.45" duration="10.00" routeLength="81.82" waitingTime="0.00" waitingCount="0" stopTime="0.00" timeLoss="3.14" rerouteNo="0" devices="tripinfo_4 routing_4" vType="car" speedFactor="0.81" vaporized=""/>
    <tripinfo id="42" depart="0.00" departLane="-155_1" departPos="109.97" departPosLat="0.00" departSpeed="0.00" departDelay="0.00" arrival="11.00" arrivalLane="-89_0" arrivalPos="40.95" arrivalPosLat="0.00" arrivalSpeed="14.80" duration="11.00" routeLength="110.99" waitingTime="0.00" waitingCount="0" stopTime="0.00" timeLoss="3.46" rerouteNo="0" devices="tripinfo_42 routing_42" vType="car" speedFactor="0.83" vaporized=""/>
    <tripinfo id="13" depart="0.00" departLane="-155_0" departPos="83.10" departPosLat="0.00" departSpeed="3.00" departDelay="0.00" arrival="11.00" arrivalLane="-128#0_0" arrivalPos="5.13" arrivalPosLat="0.00" arrivalSpeed="10.44" duration="11.00" routeLength="69.41" waitingTime="0.00" waitingCount="0" stopTime="0.00" timeLoss="4.41" rerouteNo="0" devices="tripinfo_13 routing_13" vType="car" speedFactor="0.76" vaporized=""/>
    <tripinfo id="2" depart="0.00" departLane="-155_4" departPos="97.16" departPosLat="0.00" departSpeed="0.00" departDelay="0.00" arrival="11.00" arrivalLane="-77_1" arrivalPos="11.60" arrivalPosLat="0.00" arrivalSpeed="13.82" duration="11.00" routeLength="91.87" waitingTime="0.00" waitingCount="0" stopTime="0.00" timeLoss="4.13" rerouteNo="0" devices="tripinfo_2 routing_2" vType="car" speedFactor="0.87" vaporized=""/>
    <tripinfo id="34" depart="0.00" departLane="-155_3" departPos="112.00" departPosLat="0.00" departSpeed="0.00" departDelay="0.00" arrival="11.00" arrivalLane="-89_2" arrivalPos="40.95" arrivalPosLat="0.00" arrivalSpeed="16.37" duration="11.00" routeLength="108.96" waitingTime="0.00" waitingCount="0" stopTime="0.00" timeLoss="3.99" rerouteNo="0" devices="tripinfo_34 routing_34" vType="car" speedFactor="0.94" vaporized=""/>
    <tripinfo id="31" depart="0.00" departLane="-155_2" departPos="109.63" departPosLat="0.00" departSpeed="0.00" departDelay="0.00" arrival="11.00" arrivalLane="-89_1" arrivalPos="40.95" arrivalPosLat="0.00" arrivalSpeed="14.65" duration="11.00" routeLength="111.33" waitingTime="0.00" waitingCount="0" stopTime="0.00" timeLoss="2.92" rerouteNo="0" devices="tripinfo_31 routing_31" vType="car" speedFactor="0.82" vaporized=""/>
    <tripinfo id="56" depart="0.00" departLane="-155_2" departPos="101.83" departPosLat="0.00" departSpeed="0.00" departDelay="0.00" arrival="12.00" arrivalLane="-89_1" arrivalPos="40.95" arrivalPosLat="0.00" arrivalSpeed="14.58" duration="12.00" routeLength="119.13" waitingTime="0.00" waitingCount="0" stopTime="0.00" timeLoss="3.80" rerouteNo="0" devices="tripinfo_56 routing_56" vType="car" speedFactor="0.83" vaporized=""/>
    <tripinfo id="3" depart="0.00" departLane="-155_4" departPos="86.96" departPosLat="0.00" departSpeed="0.00" departDelay="0.00" arrival="12.00" arrivalLane="-77_1" arrivalPos="11.55" arrivalPosLat="0.00" arrivalSpeed="11.98" duration="12.00" routeLength="102.02" waitingTime="0.00" waitingCount="0" stopTime="0.00" timeLoss="4.02" rerouteNo="0" devices="tripinfo_3 routing_3" vType="car" speedFactor="0.79" vaporized=""/>
    <tripinfo id="20" depart="0.00" departLane="-155_3" departPos="100.10" departPosLat="0.00" departSpeed="0.00" departDelay="0.00" arrival="12.00" arrivalLane="-89_2" arrivalPos="40.95" arrivalPosLat="0.00" arrivalSpeed="15.19" duration="12.00" routeLength="120.86" waitingTime="0.00" waitingCount="0" stopTime="0.00" timeLoss="4.03" rerouteNo="0" devices="tripinfo_20 routing_20" vType="car" speedFactor="0.86" vaporized=""/>
    <tripinfo id="54" depart="0.00" departLane="-155_2" departPos="94.33" departPosLat="0.00" departSpeed="0.00" departDelay="0.00" arrival="13.00" arrivalLane="-89_1" arrivalPos="40.95" arrivalPosLat="0.00" arrivalSpeed="16.46" duration="13.00" routeLength="126.63" waitingTime="0.00" waitingCount="0" stopTime="0.00" timeLoss="6.28" rerouteNo="0" devices="tripinfo_54 routing_54" vType="car" speedFactor="1.10" vaporized=""/>
    <tripinfo id="49" depart="0.00" departLane="-155_3" departPos="90.80" departPosLat="0.00" departSpeed="0.00" departDelay="0.00" arrival="13.00" arrivalLane="-89_2" arrivalPos="40.95" arrivalPosLat="0.00" arrivalSpeed="15.85" duration="13.00" routeLength="130.16" waitingTime="0.00" waitingCount="0" stopTime="0.00" timeLoss="5.13" rerouteNo="0" devices="tripinfo_49 routing_49" vType="car" speedFactor="0.93" vaporized=""/>
    <tripinfo id="16" depart="0.00" departLane="-94#1_1" departPos="98.82" departPosLat="0.00" departSpeed="0.00" departDelay="0.00" arrival="13.00" arrivalLane="-198_0" arrivalPos="44.64" arrivalPosLat="0.50" arrivalSpeed="11.69" duration="13.00" routeLength="79.12" waitingTime="0.00" waitingCount="0" stopTime="0.00" timeLoss="8.88" rerouteNo="0" devices="tripinfo_16 routing_16" vType="car" speedFactor="0.86" vaporized=""/>
    <tripinfo id="25" depart="0.00" departLane="-155_4" departPos="76.57" departPosLat="0.00" departSpeed="0.00" departDelay="0.00" arrival="13.00" arrivalLane="-77_1" arrivalPos="10.89" arrivalPosLat="0.00" arrivalSpeed="12.90" duration="13.00" routeLength="111.75" waitingTime="0.00" waitingCount="0" stopTime="0.00" timeLoss="5.44" rerouteNo="0" devices="tripinfo_25 routing_25" vType="car" speedFactor="0.90" vaporized=""/>
    <tripinfo id="22" depart="0.00" departLane="-155_5" departPos="105.61" departPosLat="0.00" departSpeed="0.00" departDelay="0.00" arrival="13.00" arrivalLane="-198_2" arrivalPos="45.37" arrivalPosLat="0.00" arrivalSpeed="12.17" duration="13.00" routeLength="69.90" waitingTime="0.00" waitingCount="0" stopTime="0.00" timeLoss="4.95" rerouteNo="0" devices="tripinfo_22 routing_22" vType="car" speedFactor="0.70" vaporized=""/>
    <tripinfo id="102" depart="1.00" departLane="-155_0" departPos="73.41" departPosLat="0.00" departSpeed="3.90" departDelay="0.00" arrival="13.00" arrivalLane="-128#0_0" arrivalPos="5.13" arrivalPosLat="0.00" arrivalSpeed="10.82" duration="12.00" routeLength="79.10" waitingTime="0.00" waitingCount="0" stopTime="0.00" timeLoss="4.92" rerouteNo="0" devices="tripinfo_102 routing_102" vType="car" speedFactor="0.79" vaporized=""/>
    <tripinfo id="53" depart="0.00" departLane="-155_2" departPos="85.93" departPosLat="0.00" departSpeed="0.00" departDelay="0.00" arrival="14.00" arrivalLane="-89_1" arrivalPos="40.95" arrivalPosLat="0.00" arrivalSpeed="15.99" duration="14.00" routeLength="135.03" waitingTime="0.00" waitingCount="0" stopTime="0.00" timeLoss="5.86" rerouteNo="0" devices="tripinfo_53 routing_53" vType="car" speedFactor="0.96" vaporized=""/>
    <tripinfo id="50" depart="0.00" departLane="-155_1" departPos="101.86" departPosLat="0.00" departSpeed="0.00" departDelay="0.00" arrival="14.00" arrivalLane="-89_0" arrivalPos="40.95" arrivalPosLat="0.00" arrivalSpeed="11.91" duration="14.00" routeLength="119.10" waitingTime="0.00" waitingCount="0" stopTime="0.00" timeLoss="3.43" rerouteNo="0" devices="tripinfo_50 routing_50" vType="car" speedFactor="0.67" vaporized=""/>
    <tripinfo id="26" depart="0.00" departLane="-155_3" departPos="82.20" departPosLat="0.00" departSpeed="0.00" departDelay="0.00" arrival="14.00" arrivalLane="-89_2" arrivalPos="40.95" arrivalPosLat="0.00" arrivalSpeed="17.08" duration="14.00" routeLength="138.76" waitingTime="0.00" waitingCount="0" stopTime="0.00" timeLoss="6.84" rerouteNo="0" devices="tripinfo_26 routing_26" vType="car" speedFactor="1.11" vaporized=""/>
    <tripinfo id="44" depart="8.00" departLane="-155_4" departPos="120.71" departPosLat="0.00" departSpeed="2.10" departDelay="8.00" arrival="15.00" arrivalLane="-77_1" arrivalPos="11.31" arrivalPosLat="-1.00" arrivalSpeed="14.03" duration="7.00" routeLength="68.03" waitingTime="0.00" waitingCount="0" stopTime="0.00" timeLoss="1.86" rerouteNo="0" devices="tripinfo_44 routing_44" vType="car" speedFactor="0.86" vaporized=""/>
    <tripinfo id="57" depart="0.00" departLane="-155_1" departPos="92.56" departPosLat="0.00" departSpeed="0.00" departDelay="0.00" arrival="15.00" arrivalLane="-89_0" arrivalPos="40.95" arrivalPosLat="0.00" arrivalSpeed="13.57" duration="15.00" routeLength="128.40" waitingTime="0.00" waitingCount="0" stopTime="0.00" timeLoss="6.01" rerouteNo="0" devices="tripinfo_57 routing_57" vType="car" speedFactor="0.85" vaporized=""/>
    <tripinfo id="221" depart="0.00" departLane="-103_0" departPos="47.04" departPosLat="0.00" departSpeed="0.00" departDelay="0.00" arrival="16.00" arrivalLane="-198_2" arrivalPos="45.54" arrivalPosLat="0.00" arrivalSpeed="12.73" duration="16.00" routeLength="88.44" waitingTime="2.00" waitingCount="1" stopTime="0.00" timeLoss="9.75" rerouteNo="0" devices="tripinfo_221 routing_221" vType="car" speedFactor="0.99" vaporized=""/>
    <tripinfo id="29" depart="0.00" departLane="-155_1" departPos="84.56" departPosLat="0.00" departSpeed="0.00" departDelay="0.00" arrival="16.00" arrivalLane="-89_0" arrivalPos="40.95" arrivalPosLat="0.00" arrivalSpeed="13.88" duration="16.00" routeLength="136.40" waitingTime="0.00" waitingCount="0" stopTime="0.00" timeLoss="6.78" rerouteNo="0" devices="tripinfo_29 routing_29" vType="car" speedFactor="0.88" vaporized=""/>
    <tripinfo id="216" depart="5.00" departLane="-155_0" departPos="73.61" departPosLat="0.00" departSpeed="3.90" departDelay="0.00" arrival="16.00" arrivalLane="-128#0_0" arrivalPos="5.13" arrivalPosLat="0.00" arrivalSpeed="7.85" duration="11.00" routeLength="78.90" waitingTime="0.00" waitingCount="0" stopTime="0.00" timeLoss="3.30" rerouteNo="0" devices="tripinfo_216 routing_216" vType="car" speedFactor="0.72" vaporized=""/>
    <tripinfo id="45" depart="0.00" departLane="-155_1" departPos="76.86" departPosLat="0.00" departSpeed="0.00" departDelay="0.00" arrival="17.00" arrivalLane="-89_0" arrivalPos="40.95" arrivalPosLat="0.00" arrivalSpeed="15.11" duration="17.00" routeLength="144.10" waitingTime="0.00" waitingCount="0" stopTime="0.00" timeLoss="9.18" rerouteNo="0" devices="tripinfo_45 routing_45" vType="car" speedFactor="1.10" vaporized=""/>
    <tripinfo id="288" depart="6.00" departLane="-155_3" departPos="74.50" departPosLat="0.00" departSpeed="1.24" departDelay="0.00" arrival="17.00" arrivalLane="-89_2" arrivalPos="40.95" arrivalPosLat="0.00" arrivalSpeed="20.02" duration="11.00" routeLength="146.46" waitingTime="0.00" waitingCount="0" stopTime="0.00" timeLoss="3.32" rerouteNo="0" devices="tripinfo_288 routing_288" vType="car" speedFactor="1.14" vaporized=""/>
    <tripinfo id="333" depart="7.00" departLane="-155_2" departPos="74.63" departPosLat="0.00" departSpeed="3.30" departDelay="0.00" arrival="18.00" arrivalLane="-89_1" arrivalPos="40.95" arrivalPosLat="0.00" arrivalSpeed="17.80" duration="11.00" routeLength="146.33" waitingTime="0.00" waitingCount="0" stopTime="0.00" timeLoss="2.17" rerouteNo="0" devices="tripinfo_333 routing_333" vType="car" speedFactor="1.00" vaporized=""/>
    <tripinfo id="374" depart="9.00" departLane="-155_4" departPos="76.17" departPosLat="0.00" departSpeed="5.69" departDelay="0.00" arrival="20.00" arrivalLane="-77_1" arrivalPos="11.23" arrivalPosLat="-1.00" arrivalSpeed="12.47" duration="11.00" routeLength="112.49" waitingTime="0.00" waitingCount="0" stopTime="0.00" timeLoss="1.20" rerouteNo="0" devices="tripinfo_374 routing_374" vType="car" speedFactor="0.74" vaporized=""/>
    <tripinfo id="382" depart="9.00" departLane="-155_0" departPos="75.01" departPosLat="0.00" departSpeed="2.42" departDelay="0.00" arrival="21.00" arrivalLane="-128#0_0" arrivalPos="5.13" arrivalPosLat="1.00" arrivalSpeed="8.88" duration="12.00" routeLength="77.50" waitingTime="0.00" waitingCount="0" stopTime="0.00" timeLoss="2.82" rerouteNo="0" devices="tripinfo_382 routing_382" vType="car" speedFactor="0.62" vaporized=""/>
    <tripinfo id="419" depart="10.00" departLane="-155_1" departPos="73.86" departPosLat="0.00" departSpeed="3.90" departDelay="0.00" arrival="21.00" arrivalLane="-89_0" arrivalPos="40.95" arrivalPosLat="0.00" arrivalSpeed="16.76" duration="11.00" routeLength="147.10" waitingTime="0.00" waitingCount="0" stopTime="0.00" timeLoss="1.81" rerouteNo="0" devices="tripinfo_419 routing_419" vType="car" speedFactor="0.94" vaporized=""/>
    <tripinfo id="474" depart="12.00" departLane="-155_5" departPos="80.02" departPosLat="0.00" departSpeed="11.69" departDelay="0.00" arrival="21.00" arrivalLane="-77_2" arrivalPos="8.81" arrivalPosLat="0.00" arrivalSpeed="13.12" duration="9.00" routeLength="100.19" waitingTime="0.00" waitingCount="0" stopTime="0.00" timeLoss="0.81" rerouteNo="0" devices="tripinfo_474 routing_474" vType="car" speedFactor="0.81" vaporized=""/>
    <tripinfo id="421" depart="10.00" departLane="-155_3" departPos="74.60" departPosLat="0.00" departSpeed="4.81" departDelay="0.00" arrival="22.00" arrivalLane="-89_2" arrivalPos="40.95" arrivalPosLat="0.00" arrivalSpeed="14.62" duration="12.00" routeLength="146.36" waitingTime="0.00" waitingCount="0" stopTime="0.00" timeLoss="1.17" rerouteNo="0" devices="tripinfo_421 routing_421" vType="car" speedFactor="0.82" vaporized=""/>
    <tripinfo id="455" depart="11.00" departLane="-155_2" departPos="74.43" departPosLat="0.00" departSpeed="6.00" departDelay="0.00" arrival="22.00" arrivalLane="-89_1" arrivalPos="40.95" arrivalPosLat="0.00" arrivalSpeed="16.30" duration="11.00" routeLength="146.53" waitingTime="0.00" waitingCount="0" stopTime="0.00" timeLoss="1.21" rerouteNo="0" devices="tripinfo_455 routing_455" vType="car" speedFactor="0.91" vaporized=""/>
    <tripinfo id="462" depart="11.00" departLane="-155_4" departPos="76.47" departPosLat="0.00" departSpeed="6.29" departDelay="0.00" arrival="22.00" arrivalLane="-77_1" arrivalPos="11.39" arrivalPosLat="-1.00" arrivalSpeed="12.77" duration="11.00" routeLength="112.35" waitingTime="0.00" waitingCount="0" stopTime="0.00" timeLoss="1.19" rerouteNo="0" devices="tripinfo_462 routing_462" vType="car" speedFactor="0.77" vaporized=""/>
    <tripinfo id="496" depart="12.00" departLane="-155_1" departPos="75.46" departPosLat="0.00" departSpeed="7.79" departDelay="0.00" arrival="23.00" arrivalLane="-89_0" arrivalPos="40.95" arrivalPosLat="0.00" arrivalSpeed="15.48" duration="11.00" routeLength="145.50" waitingTime="0.00" waitingCount="0" stopTime="0.00" timeLoss="0.96" rerouteNo="0" devices="tripinfo_496 routing_496" vType="car" speedFactor="0.87" vaporized=""/>
    <tripinfo id="491" depart="12.00" departLane="-155_3" departPos="76.00" departPosLat="0.00" departSpeed="7.20" departDelay="0.00" arrival="23.00" arrivalLane="-89_2" arrivalPos="40.95" arrivalPosLat="0.00" arrivalSpeed="15.93" duration="11.00" routeLength="144.96" waitingTime="0.00" waitingCount="0" stopTime="0.00" timeLoss="1.70" rerouteNo="0" devices="tripinfo_491 routing_491" vType="car" speedFactor="0.94" vaporized=""/>
    <tripinfo id="530" depart="13.00" departLane="-155_4" departPos="76.37" departPosLat="0.00" departSpeed="6.90" departDelay="0.00" arrival="23.00" arrivalLane="-77_1" arrivalPos="11.25" arrivalPosLat="-1.00" arrivalSpeed="13.90" duration="10.00" routeLength="112.31" waitingTime="0.00" waitingCount="0" stopTime="0.00" timeLoss="1.76" rerouteNo="0" devices="tripinfo_530 routing_530" vType="car" speedFactor="0.91" vaporized=""/>
    <tripinfo id="522" depart="13.00" departLane="-155_2" departPos="75.93" departPosLat="0.00" departSpeed="9.30" departDelay="0.00" arrival="24.00" arrivalLane="-89_1" arrivalPos="40.95" arrivalPosLat="0.00" arrivalSpeed="15.34" duration="11.00" routeLength="145.03" waitingTime="0.00" waitingCount="0" stopTime="0.00" timeLoss="0.63" rerouteNo="0" devices="tripinfo_522 routing_522" vType="car" speedFactor="0.86" vaporized=""/>
    <tripinfo id="565" depart="14.00" departLane="-155_3" departPos="76.00" departPosLat="0.00" departSpeed="8.39" departDelay="0.00" arrival="24.00" arrivalLane="-89_2" arrivalPos="40.95" arrivalPosLat="0.00" arrivalSpeed="16.90" duration="10.00" routeLength="144.96" waitingTime="0.00" waitingCount="0" stopTime="0.00" timeLoss="1.39" rerouteNo="0" devices="tripinfo_565 routing_565" vType="car" speedFactor="0.99" vaporized=""/>
    <tripinfo id="594" depart="15.00" departLane="-155_2" departPos="75.93" departPosLat="0.00" departSpeed="10.19" departDelay="0.00" arrival="25.00" arrivalLane="-89_1" arrivalPos="40.95" arrivalPosLat="0.00" arrivalSpeed="16.17" duration="10.00" routeLength="145.03" waitingTime="0.00" waitingCount="0" stopTime="0.00" timeLoss="0.78" rerouteNo="0" devices="tripinfo_594 routing_594" vType="car" speedFactor="0.92" vaporized=""/>
    <tripinfo id="662" depart="17.00" departLane="-155_3" departPos="76.30" departPosLat="0.00" departSpeed="10.19" departDelay="0.00" arrival="26.00" arrivalLane="-89_2" arrivalPos="40.95" arrivalPosLat="0.00" arrivalSpeed="18.37" duration="9.00" routeLength="144.66" waitingTime="0.00" waitingCount="0" stopTime="0.00" timeLoss="0.88" rerouteNo="0" devices="tripinfo_662 routing_662" vType="car" speedFactor="1.04" vaporized=""/>
    <tripinfo id="676" depart="18.00" departLane="-155_1" departPos="75.66" departPosLat="0.00" departSpeed="10.49" departDelay="0.00" arrival="28.00" arrivalLane="-89_0" arrivalPos="40.95" arrivalPosLat="0.00" arrivalSpeed="15.77" duration="10.00" routeLength="145.30" waitingTime="0.00" waitingCount="0" stopTime="0.00" timeLoss="0.41" rerouteNo="0" devices="tripinfo_676 routing_676" vType="car" speedFactor="0.88" vaporized=""/>
    <tripinfo id="685" depart="18.00" departLane="-155_2" departPos="75.53" departPosLat="0.00" departSpeed="10.19" departDelay="0.00" arrival="28.00" arrivalLane="-89_1" arrivalPos="40.95" arrivalPosLat="0.00" arrivalSpeed="16.26" duration="10.00" routeLength="145.43" waitingTime="0.00" waitingCount="0" stopTime="0.00" timeLoss="0.53" rerouteNo="0" devices="tripinfo_685 routing_685" vType="car" speedFactor="0.91" vaporized=""/>