<?xml version="1.0" encoding="UTF-8"?>

<!-- generated on 2025-09-11 18:16:44 by Eclipse SUMO sumo Version 1.18.0
<configuration xmlns:xsi="http://www.w3.org/2001/XMLSchema-instance" xsi:noNamespaceSchemaLocation="http://sumo.dlr.de/xsd/sumoConfiguration.xsd">

    <input>
        <net-file value="E:\JinJixia\Code\Screening-Optimization\20250910\CitySim\Algorithm\MASON\1\IntersectionA.net.xml"/>
        <route-files value="E:\JinJixia\Code\Screening-Optimization\20250910\CitySim\Algorithm\MASON\1\new.rou.xml"/>
        <additional-files value="E:\JinJixia\Code\Screening-Optimization\20250910\CitySim\Algorithm\MASON\1\loop.xml,E:\JinJixia\Code\Screening-Optimization\20250910\CitySim\Algorithm\MASON\1\ e2_det.xml,E:\JinJixia\Code\Screening-Optimization\20250910\CitySim\Algorithm\MASON\1\ e3_det.xml"/>
    </input>

    <output>
        <output-prefix value="output."/>
        <queue-output value="E:\JinJixia\Code\Screening-Optimization\20250910\CitySim\Algorithm\MASON\1\queue.xml"/>
        <summary-output value="E:\JinJixia\Code\Screening-Optimization\20250910\CitySim\Algorithm\MASON\1/summary.xml"/>
        <tripinfo-output value="E:\JinJixia\Code\Screening-Optimization\20250910\CitySim\Algorithm\MASON\1\tripinfo.xml"/>
        <tripinfo-output.write-unfinished value="false"/>
    </output>

    <time>
        <begin value="0.0"/>
        <end value="3600.0"/>
        <step-length value="1"/>
    </time>

    <processing>
        <lateral-resolution value="0.8"/>
        <ignore-junction-blocker value="60"/>
        <ignore-route-errors value="true"/>
        <collision.action value="teleport"/>
        <time-to-teleport value="300"/>
        <max-depart-delay value="900"/>
        <eager-insert value="true"/>
        <emergency-insert value="true"/>
        <time-to-impatience value="120"/>
        <pedestrian.model value="striping"/>
        <pedestrian.striping.stripe-width value="0.55"/>
        <pedestrian.striping.jamtime value="60"/>
    </processing>

    <routing>
        <persontrip.transfer.car-walk value="parkingAreas,ptStops,allJunctions"/>
        <device.rerouting.probability value="1"/>
        <device.rerouting.period value="300"/>
        <device.rerouting.pre-period value="300"/>
        <person-device.rerouting.probability value="1"/>
        <person-device.rerouting.period value="300"/>
    </routing>

    <report>
        <verbose value="true"/>
        <no-warnings value="true"/>
        <duration-log.disable value="false"/>
        <duration-log.statistics value="true"/>
        <no-step-log value="true"/>
    </report>

    <traci_server>
        <remote-port value="63699"/>
    </traci_server>

    <random_number>
        <seed value="51"/>
    </random_number>

</configuration>
-->

<queue-export xmlns:xsi="http://www.w3.org/2001/XMLSchema-instance" xsi:noNamespaceSchemaLocation="http://sumo.dlr.de/xsd/queue_file.xsd">
    <data timestep="0.00">
        <lanes>
            <lane id="-103_0" queueing_time="0.00" queueing_length="0.00" queueing_length_experimental="23.57"/>
            <lane id="-103_1" queueing_time="0.00" queueing_length="0.00" queueing_length_experimental="18.38"/>
            <lane id="-103_2" queueing_time="0.00" queueing_length="0.00" queueing_length_experimental="7.73"/>
            <lane id="-103_3" queueing_time="0.00" queueing_length="0.00" queueing_length_experimental="5.00"/>
            <lane id="-103_4" queueing_time="0.00" queueing_length="0.00" queueing_length_experimental="5.00"/>
            <lane id="-155_1" queueing_time="0.00" queueing_length="0.00" queueing_length_experimental="48.85"/>
            <lane id="-155_2" queueing_time="0.00" queueing_length="0.00" queueing_length_experimental="39.78"/>
            <lane id="-155_3" queueing_time="0.00" queueing_length="0.00" queueing_length_experimental="43.51"/>
            <lane id="-155_4" queueing_time="0.00" queueing_length="0.00" queueing_length_experimental="49.14"/>
            <lane id="-155_5" queueing_time="0.00" queueing_length="0.00" queueing_length_experimental="20.10"/>
            <lane id="-94#1_1" queueing_time="0.00" queueing_length="0.00" queueing_length_experimental="49.48"/>
            <lane id="-94#1_2" queueing_time="0.00" queueing_length="0.00" queueing_length_experimental="46.42"/>
            <lane id="-94#1_3" queueing_time="0.00" queueing_length="0.00" queueing_length_experimental="18.66"/>
            <lane id="-94#1_4" queueing_time="0.00" queueing_length="0.00" queueing_length_experimental="53.00"/>
            <lane id="-94#1_5" queueing_time="0.00" queueing_length="0.00" queueing_length_experimental="53.64"/>
            <lane id="60_1" queueing_time="0.00" queueing_length="0.00" queueing_length_experimental="5.00"/>
            <lane id="60_3" queueing_time="0.00" queueing_length="0.00" queueing_length_experimental="13.21"/>
            <lane id="60_4" queueing_time="0.00" queueing_length="0.00" queueing_length_experimental="11.49"/>
            <lane id="60_5" queueing_time="0.00" queueing_length="0.00" queueing_length_experimental="13.37"/>
        </lanes>
    </data>
    <data timestep="1.00">
        <lanes>
            <lane id="-103_2" queueing_time="0.00" queueing_length="0.00" queueing_length_experimental="6.50"/>
            <lane id="-103_3" queueing_time="1.00" queueing_length="5.00" queueing_length_experimental="5.00"/>
            <lane id="-103_4" queueing_time="1.00" queueing_length="5.00" queueing_length_experimental="5.00"/>
            <lane id="-155_1" queueing_time="0.00" queueing_length="0.00" queueing_length_experimental="14.50"/>
            <lane id="-155_2" queueing_time="0.00" queueing_length="0.00" queueing_length_experimental="30.05"/>
            <lane id="-155_3" queueing_time="0.00" queueing_length="0.00" queueing_length_experimental="12.46"/>
            <lane id="-94#1_1" queueing_time="0.00" queueing_length="0.00" queueing_length_experimental="21.40"/>
            <lane id="-94#1_2" queueing_time="0.00" queueing_length="0.00" queueing_length_experimental="27.39"/>
            <lane id="-94#1_4" queueing_time="0.00" queueing_length="0.00" queueing_length_experimental="52.62"/>
            <lane id="-94#1_5" queueing_time="0.00" queueing_length="0.00" queueing_length_experimental="33.68"/>
            <lane id="60_1" queueing_time="1.00" queueing_length="5.00" queueing_length_experimental="5.00"/>
            <lane id="60_4" queueing_time="1.00" queueing_length="5.02" queueing_length_experimental="11.33"/>
            <lane id="60_5" queueing_time="1.00" queueing_length="5.04" queueing_length_experimental="5.04"/>
        </lanes>
    </data>
    <data timestep="2.00">
        <lanes>
            <lane id="-103_1" queueing_time="1.00" queueing_length="6.67" queueing_length_experimental="6.67"/>
            <lane id="-103_2" queueing_time="0.00" queueing_length="0.00" queueing_length_experimental="6.00"/>
            <lane id="-103_3" queueing_time="2.00" queueing_length="5.00" queueing_length_experimental="5.00"/>
            <lane id="-103_4" queueing_time="2.00" queueing_length="5.00" queueing_length_experimental="5.00"/>
            <lane id="-94#1_1" queueing_time="0.00" queueing_length="0.00" queueing_length_experimental="6.00"/>
            <lane id="-94#1_2" queueing_time="1.00" queueing_length="6.51" queueing_length_experimental="6.51"/>
            <lane id="-94#1_3" queueing_time="1.00" queueing_length="6.70" queueing_length_experimental="6.70"/>
            <lane id="-94#1_4" queueing_time="0.00" queueing_length="0.00" queueing_length_experimental="13.05"/>
            <lane id="-94#1_5" queueing_time="0.00" queueing_length="0.00" queueing_length_experimental="6.34"/>
            <lane id="60_0" queueing_time="0.00" queueing_length="0.00" queueing_length_experimental="6.18"/>
            <lane id="60_1" queueing_time="2.00" queueing_length="5.00" queueing_length_experimental="5.00"/>
            <lane id="60_4" queueing_time="2.00" queueing_length="5.02" queueing_length_experimental="11.17"/>
            <lane id="60_5" queueing_time="2.00" queueing_length="11.46" queueing_length_experimental="11.46"/>
        </lanes>
    </data>
    <data timestep="3.00">
        <lanes>
            <lane id="-103_1" queueing_time="1.00" queueing_length="12.30" queueing_length_experimental="12.30"/>
            <lane id="-103_2" queueing_time="1.00" queueing_length="6.00" queueing_length_experimental="6.00"/>
            <lane id="-103_3" queueing_time="3.00" queueing_length="5.00" queueing_length_experimental="5.00"/>
            <lane id="-103_4" queueing_time="3.00" queueing_length="5.00" queueing_length_experimental="5.00"/>
            <lane id="-128#0_0" queueing_time="0.00" queueing_length="0.00" queueing_length_experimental="5.14"/>
            <lane id="-94#1_1" queueing_time="1.00" queueing_length="11.61" queueing_length_experimental="11.61"/>
            <lane id="-94#1_2" queueing_time="0.00" queueing_length="0.00" queueing_length_experimental="13.55"/>
            <lane id="-94#1_3" queueing_time="1.00" queueing_length="12.45" queueing_length_experimental="12.45"/>
            <lane id="-94#1_4" queueing_time="1.00" queueing_length="6.26" queueing_length_experimental="18.90"/>
            <lane id="-94#1_5" queueing_time="1.00" queueing_length="6.34" queueing_length_experimental="12.03"/>
            <lane id="60_0" queueing_time="0.00" queueing_length="0.00" queueing_length_experimental="5.30"/>
            <lane id="60_1" queueing_time="3.00" queueing_length="5.00" queueing_length_experimental="5.00"/>
            <lane id="60_3" queueing_time="0.00" queueing_length="0.00" queueing_length_experimental="7.45"/>
            <lane id="60_4" queueing_time="3.00" queueing_length="11.13" queueing_length_experimental="11.13"/>
            <lane id="60_5" queueing_time="3.00" queueing_length="5.04" queueing_length_experimental="11.18"/>
        </lanes>
    </data>
    <data timestep="4.00">
        <lanes>
            <lane id=":411_0_0" queueing_time="0.00" queueing_length="0.00" queueing_length_experimental="5.98"/>
            <lane id="-103_1" queueing_time="1.00" queueing_length="6.00" queueing_length_experimental="11.69"/>
            <lane id="-103_2" queueing_time="2.00" queueing_length="6.00" queueing_length_experimental="6.00"/>
            <lane id="-103_3" queueing_time="4.00" queueing_length="5.00" queueing_length_experimental="5.00"/>
            <lane id="-103_4" queueing_time="4.00" queueing_length="5.00" queueing_length_experimental="5.00"/>
            <lane id="-94#1_1" queueing_time="2.00" queueing_length="11.61" queueing_length_experimental="11.61"/>
            <lane id="-94#1_2" queueing_time="1.00" queueing_length="18.83" queueing_length_experimental="18.83"/>
            <lane id="-94#1_3" queueing_time="1.00" queueing_length="6.00" queueing_length_experimental="11.64"/>
            <lane id="-94#1_4" queueing_time="1.00" queueing_length="24.04" queueing_length_experimental="24.04"/>
            <lane id="-94#1_5" queueing_time="1.00" queueing_length="12.03" queueing_length_experimental="12.03"/>
            <lane id="60_0" queueing_time="0.00" queueing_length="0.00" queueing_length_experimental="11.10"/>
            <lane id="60_1" queueing_time="4.00" queueing_length="5.00" queueing_length_experimental="5.00"/>
            <lane id="60_3" queueing_time="0.00" queueing_length="0.00" queueing_length_experimental="7.12"/>
            <lane id="60_4" queueing_time="4.00" queueing_length="11.09" queueing_length_experimental="11.09"/>
            <lane id="60_5" queueing_time="4.00" queueing_length="11.17" queueing_length_experimental="11.17"/>
        </lanes>
    </data>
    <data timestep="5.00">
        <lanes>
            <lane id="-103_1" queueing_time="2.00" queueing_length="11.69" queueing_length_experimental="11.69"/>
            <lane id="-103_2" queueing_time="3.00" queueing_length="6.00" queueing_length_experimental="6.00"/>
            <lane id="-103_3" queueing_time="5.00" queueing_length="5.00" queueing_length_experimental="5.00"/>
            <lane id="-103_4" queueing_time="5.00" queueing_length="5.00" queueing_length_experimental="5.00"/>
            <lane id="-128#0_2" queueing_time="0.00" queueing_length="0.00" queueing_length_experimental="5.14"/>
            <lane id="-155_1" queueing_time="0.00" queueing_length="0.00" queueing_length_experimental="35.37"/>
            <lane id="-94#1_1" queueing_time="3.00" queueing_length="11.61" queueing_length_experimental="19.02"/>
            <lane id="-94#1_2" queueing_time="2.00" queueing_length="11.97" queueing_length_experimental="11.97"/>
            <lane id="-94#1_3" queueing_time="2.00" queueing_length="11.64" queueing_length_experimental="11.64"/>
            <lane id="-94#1_4" queueing_time="2.00" queueing_length="17.43" queueing_length_experimental="22.81"/>
            <lane id="-94#1_5" queueing_time="2.00" queueing_length="12.03" queueing_length_experimental="12.03"/>
            <lane id="60_0" queueing_time="1.00" queueing_length="11.10" queueing_length_experimental="11.10"/>
            <lane id="60_1" queueing_time="5.00" queueing_length="5.00" queueing_length_experimental="5.00"/>
            <lane id="60_2" queueing_time="0.00" queueing_length="0.00" queueing_length_experimental="6.79"/>
            <lane id="60_3" queueing_time="0.00" queueing_length="0.00" queueing_length_experimental="6.16"/>
            <lane id="60_4" queueing_time="5.00" queueing_length="11.07" queueing_length_experimental="11.07"/>
            <lane id="60_5" queueing_time="5.00" queueing_length="11.11" queueing_length_experimental="11.11"/>
        </lanes>
    </data>
    <data timestep="6.00">
        <lanes>
            <lane id="-103_1" queueing_time="3.00" queueing_length="11.69" queueing_length_experimental="11.69"/>
            <lane id="-103_2" queueing_time="4.00" queueing_length="6.00" queueing_length_experimental="6.00"/>
            <lane id="-103_3" queueing_time="6.00" queueing_length="5.00" queueing_length_experimental="5.00"/>
            <lane id="-103_4" queueing_time="6.00" queueing_length="5.00" queueing_length_experimental="5.00"/>
            <lane id="-155_3" queueing_time="0.00" queueing_length="0.00" queueing_length_experimental="51.21"/>
            <lane id="-94#1_1" queueing_time="4.00" queueing_length="11.61" queueing_length_experimental="18.27"/>
            <lane id="-94#1_2" queueing_time="3.00" queueing_length="17.31" queueing_length_experimental="17.31"/>
            <lane id="-94#1_3" queueing_time="3.00" queueing_length="11.64" queueing_length_experimental="11.64"/>
            <lane id="-94#1_4" queueing_time="3.00" queueing_length="22.81" queueing_length_experimental="22.81"/>
            <lane id="-94#1_5" queueing_time="3.00" queueing_length="12.03" queueing_length_experimental="18.79"/>
            <lane id="60_0" queueing_time="2.00" queueing_length="11.10" queueing_length_experimental="11.10"/>
            <lane id="60_1" queueing_time="6.00" queueing_length="5.00" queueing_length_experimental="5.00"/>
            <lane id="60_2" queueing_time="0.00" queueing_length="0.00" queueing_length_experimental="6.31"/>
            <lane id="60_3" queueing_time="0.00" queueing_length="0.00" queueing_length_experimental="6.00"/>
            <lane id="60_4" queueing_time="6.00" queueing_length="11.06" queueing_length_experimental="11.06"/>
            <lane id="60_5" queueing_time="6.00" queueing_length="11.10" queueing_length_experimental="11.10"/>
        </lanes>
    </data>
    <data timestep="7.00">
        <lanes>
            <lane id="-103_1" queueing_time="4.00" queueing_length="11.69" queueing_length_experimental="11.69"/>
            <lane id="-103_2" queueing_time="5.00" queueing_length="6.00" queueing_length_experimental="6.00"/>
            <lane id="-103_3" queueing_time="7.00" queueing_length="5.00" queueing_length_experimental="5.00"/>
            <lane id="-103_4" queueing_time="7.00" queueing_length="5.00" queueing_length_experimental="5.00"/>
            <lane id="-94#1_1" queueing_time="5.00" queueing_length="11.61" queueing_length_experimental="18.00"/>
            <lane id="-94#1_2" queueing_time="4.00" queueing_length="17.31" queueing_length_experimental="23.52"/>
            <lane id="-94#1_3" queueing_time="4.00" queueing_length="11.64" queueing_length_experimental="11.64"/>
            <lane id="-94#1_4" queueing_time="4.00" queueing_length="22.81" queueing_length_experimental="29.20"/>
            <lane id="-94#1_5" queueing_time="4.00" queueing_length="12.03" queueing_length_experimental="18.47"/>
            <lane id="60_0" queueing_time="3.00" queueing_length="11.10" queueing_length_experimental="11.10"/>
            <lane id="60_1" queueing_time="7.00" queueing_length="5.00" queueing_length_experimental="5.00"/>
            <lane id="60_2" queueing_time="1.00" queueing_length="6.31" queueing_length_experimental="6.31"/>
            <lane id="60_3" queueing_time="1.00" queueing_length="6.00" queueing_length_experimental="6.00"/>
            <lane id="60_4" queueing_time="7.00" queueing_length="11.06" queueing_length_experimental="11.06"/>
            <lane id="60_5" queueing_time="7.00" queueing_length="11.08" queueing_length_experimental="11.08"/>
        </lanes>
    </data>
    <data timestep="8.00">
        <lanes>
            <lane id="-103_1" queueing_time="5.00" queueing_length="11.69" queueing_length_experimental="11.69"/>
            <lane id="-103_2" queueing_time="6.00" queueing_length="6.00" queueing_length_experimental="6.00"/>
            <lane id="-103_3" queueing_time="8.00" queueing_length="5.00" queueing_length_experimental="5.00"/>
            <lane id="-103_4" queueing_time="8.00" queueing_length="5.00" queueing_length_experimental="5.00"/>
            <lane id="-94#1_1" queueing_time="6.00" queueing_length="11.61" queueing_length_experimental="24.60"/>
            <lane id="-94#1_2" queueing_time="5.00" queueing_length="23.52" queueing_length_experimental="23.52"/>
            <lane id="-94#1_3" queueing_time="5.00" queueing_length="11.64" queueing_length_experimental="11.64"/>
            <lane id="-94#1_4" queueing_time="5.00" queueing_length="22.81" queueing_length_experimental="29.08"/>
            <lane id="-94#1_5" queueing_time="5.00" queueing_length="12.03" queueing_length_experimental="25.02"/>
            <lane id="60_0" queueing_time="4.00" queueing_length="11.10" queueing_length_experimental="11.10"/>
            <lane id="60_1" queueing_time="8.00" queueing_length="5.00" queueing_length_experimental="5.00"/>
            <lane id="60_2" queueing_time="0.00" queueing_length="0.00" queueing_length_experimental="6.00"/>
            <lane id="60_3" queueing_time="2.00" queueing_length="6.00" queueing_length_experimental="6.00"/>
            <lane id="60_4" queueing_time="8.00" queueing_length="11.05" queueing_length_experimental="11.05"/>
            <lane id="60_5" queueing_time="8.00" queueing_length="11.08" queueing_length_experimental="11.08"/>
        </lanes>
    </data>
    <data timestep="9.00">
        <lanes>
            <lane id="-103_1" queueing_time="6.00" queueing_length="11.69" queueing_length_experimental="11.69"/>
            <lane id="-103_2" queueing_time="7.00" queueing_length="6.00" queueing_length_experimental="6.00"/>
            <lane id="-103_3" queueing_time="9.00" queueing_length="5.00" queueing_length_experimental="5.00"/>
            <lane id="-103_4" queueing_time="9.00" queueing_length="5.00" queueing_length_experimental="5.00"/>
            <lane id="-94#1_1" queueing_time="7.00" queueing_length="17.75" queueing_length_experimental="24.05"/>
            <lane id="-94#1_2" queueing_time="6.00" queueing_length="17.31" queueing_length_experimental="23.39"/>
            <lane id="-94#1_3" queueing_time="6.00" queueing_length="11.64" queueing_length_experimental="11.64"/>
            <lane id="-94#1_4" queueing_time="6.00" queueing_length="22.81" queueing_length_experimental="28.94"/>
            <lane id="-94#1_5" queueing_time="6.00" queueing_length="18.18" queueing_length_experimental="24.47"/>
            <lane id="60_0" queueing_time="5.00" queueing_length="11.10" queueing_length_experimental="11.10"/>
            <lane id="60_1" queueing_time="9.00" queueing_length="5.00" queueing_length_experimental="5.00"/>
            <lane id="60_2" queueing_time="1.00" queueing_length="6.00" queueing_length_experimental="6.00"/>
            <lane id="60_3" queueing_time="3.00" queueing_length="6.00" queueing_length_experimental="6.00"/>
            <lane id="60_4" queueing_time="9.00" queueing_length="11.05" queueing_length_experimental="11.05"/>
            <lane id="60_5" queueing_time="9.00" queueing_length="11.07" queueing_length_experimental="11.07"/>
        </lanes>
    </data>
    <data timestep="10.00">
        <lanes>
            <lane id="-103_1" queueing_time="7.00" queueing_length="11.69" queueing_length_experimental="11.69"/>
            <lane id="-103_2" queueing_time="8.00" queueing_length="6.00" queueing_length_experimental="6.00"/>
            <lane id="-103_3" queueing_time="10.00" queueing_length="5.00" queueing_length_experimental="5.00"/>
            <lane id="-103_4" queueing_time="10.00" queueing_length="5.00" queueing_length_experimental="5.00"/>
            <lane id="-198_1" queueing_time="1.00" queueing_length="115.37" queueing_length_experimental="0.00"/>
            <lane id="-94#1_1" queueing_time="8.00" queueing_length="17.69" queueing_length_experimental="23.92"/>
            <lane id="-94#1_2" queueing_time="7.00" queueing_length="23.39" queueing_length_experimental="23.39"/>
            <lane id="-94#1_3" queueing_time="7.00" queueing_length="11.64" queueing_length_experimental="11.64"/>
            <lane id="-94#1_4" queueing_time="7.00" queueing_length="28.91" queueing_length_experimental="28.91"/>
            <lane id="-94#1_5" queueing_time="7.00" queueing_length="18.12" queueing_length_experimental="24.34"/>
            <lane id="60_0" queueing_time="6.00" queueing_length="11.10" queueing_length_experimental="11.10"/>
            <lane id="60_1" queueing_time="10.00" queueing_length="5.00" queueing_length_experimental="5.00"/>
            <lane id="60_2" queueing_time="2.00" queueing_length="6.00" queueing_length_experimental="6.00"/>
            <lane id="60_3" queueing_time="4.00" queueing_length="6.00" queueing_length_experimental="6.00"/>
            <lane id="60_4" queueing_time="10.00" queueing_length="11.05" queueing_length_experimental="11.05"/>
            <lane id="60_5" queueing_time="10.00" queueing_length="11.07" queueing_length_experimental="11.07"/>
        </lanes>
    </data>
    <data timestep="11.00">
        <lanes>
            <lane id="-103_1" queueing_time="8.00" queueing_length="11.69" queueing_length_experimental="11.69"/>
            <lane id="-103_2" queueing_time="9.00" queueing_length="6.00" queueing_length_experimental="6.00"/>
            <lane id="-103_3" queueing_time="11.00" queueing_length="5.00" queueing_length_experimental="5.00"/>
            <lane id="-103_4" queueing_time="11.00" queueing_length="5.00" queueing_length_experimental="5.00"/>
            <lane id="-198_1" queueing_time="2.00" queueing_length="115.37" queueing_length_experimental="0.00"/>
            <lane id="-94#1_1" queueing_time="9.00" queueing_length="17.67" queueing_length_experimental="23.76"/>
            <lane id="-94#1_2" queueing_time="8.00" queueing_length="23.36" queueing_length_experimental="23.36"/>
            <lane id="-94#1_3" queueing_time="8.00" queueing_length="11.64" queueing_length_experimental="11.64"/>
            <lane id="-94#1_4" queueing_time="8.00" queueing_length="28.87" queueing_length_experimental="28.87"/>
            <lane id="-94#1_5" queueing_time="8.00" queueing_length="18.09" queueing_length_experimental="24.18"/>
            <lane id="60_0" queueing_time="7.00" queueing_length="11.10" queueing_length_experimental="11.10"/>
            <lane id="60_1" queueing_time="11.00" queueing_length="5.00" queueing_length_experimental="5.00"/>
            <lane id="60_2" queueing_time="3.00" queueing_length="6.00" queueing_length_experimental="6.00"/>
            <lane id="60_3" queueing_time="5.00" queueing_length="6.00" queueing_length_experimental="6.00"/>
            <lane id="60_4" queueing_time="11.00" queueing_length="11.05" queueing_length_experimental="11.05"/>
            <lane id="60_5" queueing_time="11.00" queueing_length="11.07" queueing_length_experimental="11.07"/>
        </lanes>
    </data>
    <data timestep="12.00">
        <lanes>
            <lane id="-103_1" queueing_time="9.00" queueing_length="11.69" queueing_length_experimental="11.69"/>
            <lane id="-103_2" queueing_time="10.00" queueing_length="6.00" queueing_length_experimental="6.00"/>
            <lane id="-103_3" queueing_time="12.00" queueing_length="5.00" queueing_length_experimental="5.00"/>
            <lane id="-103_4" queueing_time="12.00" queueing_length="5.00" queueing_length_experimental="5.00"/>
            <lane id="-94#1_1" queueing_time="10.00" queueing_length="23.74" queueing_length_experimental="23.74"/>
            <lane id="-94#1_2" queueing_time="9.00" queueing_length="23.35" queueing_length_experimental="23.35"/>
            <lane id="-94#1_3" queueing_time="9.00" queueing_length="11.64" queueing_length_experimental="11.64"/>
            <lane id="-94#1_4" queueing_time="9.00" queueing_length="28.86" queueing_length_experimental="28.86"/>
            <lane id="-94#1_5" queueing_time="9.00" queueing_length="24.16" queueing_length_experimental="24.16"/>
            <lane id="60_0" queueing_time="8.00" queueing_length="11.10" queueing_length_experimental="11.10"/>
            <lane id="60_1" queueing_time="12.00" queueing_length="5.00" queueing_length_experimental="5.00"/>
            <lane id="60_2" queueing_time="4.00" queueing_length="6.00" queueing_length_experimental="6.00"/>
            <lane id="60_3" queueing_time="6.00" queueing_length="6.00" queueing_length_experimental="6.00"/>
            <lane id="60_4" queueing_time="12.00" queueing_length="11.05" queueing_length_experimental="11.05"/>
            <lane id="60_5" queueing_time="12.00" queueing_length="11.07" queueing_length_experimental="11.07"/>
        </lanes>
    </data>
    <data timestep="13.00">
        <lanes>
            <lane id="-103_1" queueing_time="10.00" queueing_length="11.69" queueing_length_experimental="11.69"/>
            <lane id="-103_2" queueing_time="11.00" queueing_length="6.00" queueing_length_experimental="6.00"/>
            <lane id="-103_3" queueing_time="13.00" queueing_length="5.00" queueing_length_experimental="5.00"/>
            <lane id="-103_4" queueing_time="13.00" queueing_length="5.00" queueing_length_experimental="5.00"/>
            <lane id="-94#1_1" queueing_time="11.00" queueing_length="23.69" queueing_length_experimental="23.69"/>
            <lane id="-94#1_2" queueing_time="10.00" queueing_length="23.35" queueing_length_experimental="23.35"/>
            <lane id="-94#1_3" queueing_time="10.00" queueing_length="11.64" queueing_length_experimental="11.64"/>
            <lane id="-94#1_4" queueing_time="10.00" queueing_length="28.85" queueing_length_experimental="28.85"/>
            <lane id="-94#1_5" queueing_time="10.00" queueing_length="24.11" queueing_length_experimental="24.11"/>
            <lane id="60_0" queueing_time="9.00" queueing_length="11.10" queueing_length_experimental="11.10"/>
            <lane id="60_1" queueing_time="13.00" queueing_length="5.00" queueing_length_experimental="5.00"/>
            <lane id="60_2" queueing_time="5.00" queueing_length="6.00" queueing_length_experimental="6.00"/>
            <lane id="60_3" queueing_time="7.00" queueing_length="6.00" queueing_length_experimental="6.00"/>
            <lane id="60_4" queueing_time="13.00" queueing_length="11.05" queueing_length_experimental="11.05"/>
            <lane id="60_5" queueing_time="13.00" queueing_length="11.07" queueing_length_experimental="11.07"/>
        </lanes>
    </data>
    <data timestep="14.00">
        <lanes>
            <lane id="-103_1" queueing_time="11.00" queueing_length="11.69" queueing_length_experimental="11.69"/>
            <lane id="-103_2" queueing_time="12.00" queueing_length="6.00" queueing_length_experimental="6.00"/>
            <lane id="-103_3" queueing_time="14.00" queueing_length="5.00" queueing_length_experimental="5.00"/>
            <lane id="-103_4" queueing_time="14.00" queueing_length="5.00" queueing_length_experimental="5.00"/>
            <lane id="-94#1_1" queueing_time="12.00" queueing_length="23.69" queueing_length_experimental="23.69"/>
            <lane id="-94#1_2" queueing_time="11.00" queueing_length="23.34" queueing_length_experimental="23.34"/>
            <lane id="-94#1_3" queueing_time="11.00" queueing_length="11.64" queueing_length_experimental="11.64"/>
            <lane id="-94#1_4" queueing_time="11.00" queueing_length="28.84" queueing_length_experimental="28.84"/>
            <lane id="-94#1_5" queueing_time="11.00" queueing_length="24.10" queueing_length_experimental="24.10"/>
            <lane id="60_0" queueing_time="10.00" queueing_length="11.10" queueing_length_experimental="11.10"/>
            <lane id="60_1" queueing_time="14.00" queueing_length="5.00" queueing_length_experimental="5.00"/>
            <lane id="60_2" queueing_time="6.00" queueing_length="6.00" queueing_length_experimental="6.00"/>
            <lane id="60_3" queueing_time="8.00" queueing_length="6.00" queueing_length_experimental="6.00"/>
            <lane id="60_4" queueing_time="14.00" queueing_length="11.05" queueing_length_experimental="11.05"/>
            <lane id="60_5" queueing_time="14.00" queueing_length="11.07" queueing_length_experimental="11.07"/>
        </lanes>
    </data>
    <data timestep="15.00">
        <lanes>